----- GAMESS execution script 'rungms' -----
This job is running on host chemcompute-node-0.novalocal
under operating system Linux at Sat Nov 13 19:25:18 UTC 2021
SLURM has assigned the following compute nodes to this run:
chemcompute-node-0
Available scratch disk space (Kbyte units) at beginning of the job is
Filesystem     1K-blocks     Used Available Use% Mounted on
/dev/sda1       62903276 16657220  46246056  27% /
GAMESS temporary binary files will be written to /scratch/306117
GAMESS supplementary output files will be written to /data/slurm/342019
Copying input file 342019.inp to your run's scratch directory...
The generated host list is
chemcompute-node-0.novalocal

 Distributed Data Interface kickoff program.
 Initiating 1 compute processes on 1 nodes to run the following command:
 /data/gamess-2019R1-ddi/gamess.00.x 342019 

          ******************************************************
          *         GAMESS VERSION = 30 JUN 2019 (R1)          *
          *             FROM IOWA STATE UNIVERSITY             *
          * M.W.SCHMIDT, K.K.BALDRIDGE, J.A.BOATZ, S.T.ELBERT, *
          *   M.S.GORDON, J.H.JENSEN, S.KOSEKI, N.MATSUNAGA,   *
          *          K.A.NGUYEN, S.J.SU, T.L.WINDUS,           *
          *       TOGETHER WITH M.DUPUIS, J.A.MONTGOMERY       *
          *         J.COMPUT.CHEM.  14, 1347-1363(1993)        *
          **************** 64 BIT LINUX VERSION ****************

  SINCE 1993, STUDENTS AND POSTDOCS WORKING AT IOWA STATE UNIVERSITY
  AND ALSO IN THEIR VARIOUS JOBS AFTER LEAVING ISU HAVE MADE IMPORTANT
  CONTRIBUTIONS TO THE CODE:
     IVANA ADAMOVIC, CHRISTINE AIKENS, YURI ALEXEEV, POOJA ARORA,
     ANDREY ASADCHEV, ROB BELL, PRADIPTA BANDYOPADHYAY, JONATHAN BENTZ,
     COLLEEN BERTONI, BRETT BODE, KURT BRORSEN, CALEB CARLIN, GALINA CHABAN,
     WEI CHEN, CHEOL HO CHOI, PAUL DAY, ALBERT DEFUSCO, NUWAN DESILVA,
     TIM DUDLEY, DMITRI FEDOROV, ALEX FINDLATER, GRAHAM FLETCHER, 
     MARK FREITAG, KURT GLAESEMANN, ANASTASIA GUNINA,
     DAN KEMP, GRANT MERRILL, NORIYUKI MINEZAWA, JONATHAN MULLIN,
     TAKESHI NAGATA, SEAN NEDD, HEATHER NETZLOFF, BOSILJKA NJEGIC, RYAN OLSON,
     MIKE PAK, BUU PHAM,
     SPENCER PRUITT, LUKE ROSKOP, JIM SHOEMAKER, LYUDMILA SLIPCHENKO,
     TONY SMITH, SAROM SOK LEANG, JIE SONG, TETSUYA TAKETSUGU, SIMON WEBB,
     PENG XU, SOOHAENG YOO, FEDERICO ZAHARIEV

  ADDITIONAL CODE HAS BEEN PROVIDED BY COLLABORATORS IN OTHER GROUPS:
     IOWA STATE UNIVERSITY:
          JOE IVANIC, AARON WEST, LAIMUTIS BYTAUTAS, KLAUS RUEDENBERG
     UNIVERSITY OF TOKYO: KIMIHIKO HIRAO, TAKAHITO NAKAJIMA,
          TAKAO TSUNEDA, MUNEAKI KAMIYA, SUSUMU YANAGISAWA,
          KIYOSHI YAGI, MAHITO CHIBA, SEIKEN TOKURA, NAOAKI KAWAKAMI
     UNIVERSITY OF AARHUS: FRANK JENSEN
     UNIVERSITY OF IOWA: VISVALDAS KAIRYS, HUI LI
     NATIONAL INST. OF STANDARDS AND TECHNOLOGY: WALT STEVENS, DAVID GARMER
     UNIVERSITY OF PISA: BENEDETTA MENNUCCI, JACOPO TOMASI
     UNIVERSITY OF MEMPHIS: HENRY KURTZ, PRAKASHAN KORAMBATH
     UNIVERSITY OF ALBERTA: TOBY ZENG, MARIUSZ KLOBUKOWSKI
     UNIVERSITY OF NEW ENGLAND: MARK SPACKMAN
     MIE UNIVERSITY: HIROAKI UMEDA
     NAT. INST. OF ADVANCED INDUSTRIAL SCIENCE AND TECHNOLOGY: KAZUO KITAURA
     MICHIGAN STATE UNIVERSITY:
          KAROL KOWALSKI, MARTA WLOCH, JEFFREY GOUR, JESSE LUTZ,
          WEI LI, JUN SHEN, J. EMILIANO DEUSTUA, PIOTR PIECUCH
     UNIVERSITY OF MINNESOTA:
          YINAN SHU
     UNIVERSITY OF SILESIA: MONIKA MUSIAL, STANISLAW KUCHARSKI
     FACULTES UNIVERSITAIRES NOTRE-DAME DE LA PAIX:
          OLIVIER QUINET, BENOIT CHAMPAGNE
     UNIVERSITY OF CALIFORNIA - SANTA BARBARA: BERNARD KIRTMAN
     INSTITUTE FOR MOLECULAR SCIENCE:
          KAZUYA ISHIMURA, MICHIO KATOUDA, AND SHIGERU NAGASE
     UNIVERSITY OF NOTRE DAME: ANNA POMOGAEVA, DAN CHIPMAN
     KYUSHU UNIVERSITY:
          HARUYUKI NAKANO,
          FENG LONG GU, JACEK KORCHOWIEC, MARCIN MAKOWSKI, AND YURIKO AOKI,
          HIROTOSHI MORI AND EISAKU MIYOSHI
     PENNSYLVANIA STATE UNIVERSITY:
          TZVETELIN IORDANOV, CHET SWALINA, JONATHAN SKONE,
          SHARON HAMMES-SCHIFFER
     WASEDA UNIVERSITY:
          MASATO KOBAYASHI, TOMOKO AKAMA, TSUGUKI TOUMA,
          TAKESHI YOSHIKAWA, YASUHIRO IKABATA, JUNJI SEINO,
          YUYA NAKAJIMA, HIROMI NAKAI
     NANJING UNIVERSITY: SHUHUA LI
     UNIVERSITY OF NEBRASKA:
          PEIFENG SU, DEJUN SI, NANDUN THELLAMUREGE, YALI WANG, HUI LI
     UNIVERSITY OF ZURICH: ROBERTO PEVERATI, KIM BALDRIDGE
     N. COPERNICUS UNIVERSITY AND JACKSON STATE UNIVERSITY:
          MARIA BARYSZ
     UNIVERSITY OF COPENHAGEN: Jimmy Kromann, CASPER STEINMANN
     TOKYO INSTITUTE OF TECHNOLOGY: HIROYA NAKATA
     NAGOYA UNIVERSITY: YOSHIO NISHIMOTO, STEPHAN IRLE
     MOSCOW STATE UNIVERSITY: VLADIMIR MIRONOV
     A.N.NESMEYANOV INSTITUTE OF ORGANOELEMENT COMPOUNDS OF RUSSIAN ACADEMY OF SCIENCES:
          IGOR S. GERASIMOV

 EXECUTION OF GAMESS BEGUN Sat Nov 13 19:25:18 2021

            ECHO OF THE FIRST FEW INPUT CARDS -
 INPUT CARD>!                                                                               
 INPUT CARD>!   GAMESS Calculation input file                                               
 INPUT CARD>!                                                                               
 INPUT CARD>!                                                                               
 INPUT CARD> $CONTRL SCFTYP=RHF MAXIT=200 RUNTYP=OPTIMIZE                                   
 INPUT CARD>         COORD=UNIQUE MULT=1                                                    
 INPUT CARD>         ICHARG=1                                                               
 INPUT CARD>         MOLPLT=.FALSE. PLTORB=.FALSE.  $END                                    
 INPUT CARD> $SYSTEM TIMLIM=2879 MWORDS=250  $END                                           
 INPUT CARD>                                                                                
 INPUT CARD> $STATPT OPTTOL=0.0005 NSTEP=999 $END                                           
 INPUT CARD> $STATPT IHREP=0  $END                                                          
 INPUT CARD>                                                                                
 INPUT CARD> $BASIS  GBASIS=PM3 $END                                                        
 INPUT CARD>                                                                                
 INPUT CARD> $SCF    DIRSCF=.T. $END                                                        
 INPUT CARD> $GUESS  GUESS=HUCKEL  $END                                                     
 INPUT CARD>                                                                                
 INPUT CARD> $DATA                                                                          
 INPUT CARD>                                                                                
 INPUT CARD>  Cs                                                                            
 INPUT CARD>                                                                                
 INPUT CARD>C     6.0    -0.86     0.16    -0.75                                            
 INPUT CARD>C     6.0    -0.36     1.48    -1.23                                            
 INPUT CARD>C     6.0    -0.40     2.40    -0.00                                            
 INPUT CARD>H     1.0    -1.57    -0.39     1.35                                            
 INPUT CARD>Br   35.0     0.49    -1.00     0.00                                            
 INPUT CARD>H     1.0    -1.02     1.88    -2.01                                            
 INPUT CARD>H     1.0     0.65     1.45    -1.66                                            
 INPUT CARD>H     1.0    -1.35     2.96    -0.00                                            
 INPUT CARD>H     1.0     0.40     3.14    -0.00                                            
 INPUT CARD> $END                                                                           
 INPUT CARD>                                                                                
 INPUT CARD>                                                                                
 INPUT CARD>! Customizations after this line are persisted when using Do More Calculations  
  250000000 WORDS OF MEMORY AVAILABLE

     BASIS OPTIONS
     -------------
     GBASIS=PM3          IGAUSS=       0      POLAR=NONE    
     NDFUNC=       0     NFFUNC=       0     DIFFSP=       F
     NPFUNC=       0      DIFFS=       F     BASNAM=        


     RUN TITLE
     ---------
                                                                                 

 THE POINT GROUP OF THE MOLECULE IS CS      
 THE ORDER OF THE PRINCIPAL AXIS IS     0

 ATOM      ATOMIC                      COORDINATES (BOHR)
           CHARGE         X                   Y                   Z
 C           6.0    -1.6251643494        0.3023561580        1.4172944908
 C           6.0    -1.6251643494        0.3023561580       -1.4172944908
 C           6.0    -0.6803013556        2.7967944618        2.3243629649
 C           6.0    -0.6803013556        2.7967944618       -2.3243629649
 C           6.0    -0.7558903951        4.5353423705       -0.0000000000
 H           1.0    -2.9668698007       -0.7369931352       -2.5511300834
 H           1.0    -2.9668698007       -0.7369931352        2.5511300834
 BR         35.0     0.9259657340       -1.8897259877        0.0000000000
 H           1.0    -1.9275205075        3.5526848569        3.7983492353
 H           1.0    -1.9275205075        3.5526848569       -3.7983492353
 H           1.0     1.2283218920        2.7401026822        3.1369451396
 H           1.0     1.2283218920        2.7401026822       -3.1369451396
 H           1.0    -2.5511300834        5.5935889237       -0.0000000000
 H           1.0     0.7558903951        5.9337396014       -0.0000000000

          INTERNUCLEAR DISTANCES (ANGS.)
          ------------------------------

                1 C          2 C          3 C          4 C          5 C     

   1 C       0.0000000    1.5000000 *  1.4909058 *  2.4316250 *  2.4065951 *
   2 C       1.5000000 *  0.0000000    2.4316250 *  1.4909058 *  2.4065951 *
   3 C       1.4909058 *  2.4316250 *  0.0000000    2.4600000 *  1.5365220 *
   4 C       2.4316250 *  1.4909058 *  2.4600000 *  0.0000000    1.5365220 *
   5 C       2.4065951 *  2.4065951 *  1.5365220 *  1.5365220 *  0.0000000  
   6 H       2.2839877 *  1.0800926 *  3.4084307    2.2305605 *  3.3129292  
   7 H       1.0800926 *  2.2839877 *  2.2305605 *  3.4084307    3.3129292  
   8 BR      1.9314761 *  1.9314761 *  2.8958246 *  2.8958246 *  3.5145554  
   9 H       2.1381300 *  3.2560098    1.0972693 *  3.3306456    2.1667718 *
  10 H       3.2560098    2.1381300 *  3.3306456    1.0972693 *  2.1667718 *
  11 H       2.1845595 *  3.1228673    1.0981348 *  3.0615519    2.1818799 *
  12 H       3.1228673    2.1845595 *  3.0615519    1.0981348 *  2.1818799 *
  13 H       2.9398299 *  2.9398299 *  2.1641164 *  2.1641164 *  1.1027692 *
  14 H       3.3212197    3.3212197    2.2013859 *  2.2013859 *  1.0897706 *

                6 H          7 H          8 BR         9 H         10 H     

   1 C       2.2839877 *  1.0800926 *  1.9314761 *  2.1381300 *  3.2560098  
   2 C       1.0800926 *  2.2839877 *  1.9314761 *  3.2560098    2.1381300 *
   3 C       3.4084307    2.2305605 *  2.8958246 *  1.0972693 *  3.3306456  
   4 C       2.2305605 *  3.4084307    2.8958246 *  3.3306456    1.0972693 *
   5 C       3.3129292    3.3129292    3.5145554    2.1667718 *  2.1667718 *
   6 H       0.0000000    2.7000000 *  2.5373608 *  4.0920655    2.4271382 *
   7 H       2.7000000 *  0.0000000    2.5373608 *  2.4271382 *  4.0920655  
   8 BR      2.5373608 *  2.5373608 *  0.0000000    3.8229047    3.8229047  
   9 H       4.0920655    2.4271382 *  3.8229047    0.0000000    4.0200000  
  10 H       2.4271382 *  4.0920655    3.8229047    4.0200000    0.0000000  
  11 H       4.1682250    2.9000172 *  2.9637308 *  1.7596306 *  4.0549599  
  12 H       2.9000172 *  4.1682250    2.9637308 *  4.0549599    1.7596306 *
  13 H       3.6184803    3.6184803    4.3666005    2.3055151 *  2.3055151 *
  14 H       4.2619596    4.2619596    4.1409781    2.7647966 *  2.7647966 *

               11 H         12 H         13 H         14 H     

   1 C       2.1845595 *  3.1228673    2.9398299 *  3.3212197  
   2 C       3.1228673    2.1845595 *  2.9398299 *  3.3212197  
   3 C       1.0981348 *  3.0615519    2.1641164 *  2.2013859 *
   4 C       3.0615519    1.0981348 *  2.1641164 *  2.2013859 *
   5 C       2.1818799 *  2.1818799 *  1.1027692 *  1.0897706 *
   6 H       4.1682250    2.9000172 *  3.6184803    4.2619596  
   7 H       2.9000172 *  4.1682250    3.6184803    4.2619596  
   8 BR      2.9637308 *  2.9637308 *  4.3666005    4.1409781  
   9 H       1.7596306 *  4.0549599    2.3055151 *  2.7647966 *
  10 H       4.0549599    1.7596306 *  2.3055151 *  2.7647966 *
  11 H       0.0000000    3.3200000    3.0059441    2.3820579 *
  12 H       3.3200000    0.0000000    3.0059441    2.3820579 *
  13 H       3.0059441    3.0059441    0.0000000    1.7592328 *
  14 H       2.3820579 *  2.3820579 *  1.7592328 *  0.0000000  

  * ... LESS THAN  3.000


 TOTAL NUMBER OF BASIS SET SHELLS             =   14
 NUMBER OF CARTESIAN GAUSSIAN BASIS FUNCTIONS =   32
 NUMBER OF ELECTRONS                          =   34
 CHARGE OF MOLECULE                           =    1
 SPIN MULTIPLICITY                            =    1
 NUMBER OF OCCUPIED ORBITALS (ALPHA)          =   17
 NUMBER OF OCCUPIED ORBITALS (BETA )          =   17
 TOTAL NUMBER OF ATOMS                        =   14
 THE NUCLEAR REPULSION ENERGY IS      438.6020526457

 THE PARAMETERS USED IN THIS CALCULATION ARE DESCRIBED IN:

  H: (PM3): J. J. P. STEWART, J. COMP. CHEM.     10, 209 (1989).                
  C: (PM3): J. J. P. STEWART, J. COMP. CHEM.     10, 209 (1989).                
 BR: (PM3): J. J. P. STEWART, J. COMP. CHEM.     10, 209 (1989).                

 THERE ARE    6 HEAVY AND    8 LIGHT ATOMS,
 YIELDING A TOTAL OF      2008 MOPAC 2E- INTEGRALS.

     $CONTRL OPTIONS
     ---------------
 SCFTYP=RHF          RUNTYP=OPTIMIZE     EXETYP=RUN     
 MPLEVL=       0     CITYP =NONE         CCTYP =NONE         VBTYP =NONE    
 DFTTYP=NONE         TDDFT =NONE    
 MULT  =       1     ICHARG=       1     NZVAR =       0     COORD =UNIQUE  
 PP    =NONE         RELWFN=NONE         LOCAL =NONE         NUMGRD=       F
 ISPHER=      -1     NOSYM =       0     MAXIT =     200     UNITS =ANGS    
 PLTORB=       F     MOLPLT=       F     AIMPAC=       F     FRIEND=        
 NPRINT=       7     IREST =       0     GEOM  =INPUT   
 NORMF =       0     NORMP =       0     ITOL  =      20     ICUT  =       9
 INTTYP=BEST         GRDTYP=BEST         QMTTOL= 1.0E-06

     $SYSTEM OPTIONS
     ---------------
  REPLICATED MEMORY=   250000000 WORDS (ON EVERY NODE).
 DISTRIBUTED MEMDDI=           0 MILLION WORDS IN AGGREGATE,
 MEMDDI DISTRIBUTED OVER   1 PROCESSORS IS           0 WORDS/PROCESSOR.
 TOTAL MEMORY REQUESTED ON EACH PROCESSOR=   250000000 WORDS.
 TIMLIM=        2879.00 MINUTES, OR       2.0 DAYS.
 PARALL= F  BALTYP=  DLB     KDIAG=    0  COREFL= F
 MXSEQ2=     300 MXSEQ3=     150  mem10=         0

          ----------------
          PROPERTIES INPUT
          ----------------

     MOMENTS            FIELD           POTENTIAL          DENSITY
 IEMOM =       1   IEFLD =       0   IEPOT =       0   IEDEN =       0
 WHERE =COMASS     WHERE =NUCLEI     WHERE =NUCLEI     WHERE =NUCLEI  
 OUTPUT=BOTH       OUTPUT=BOTH       OUTPUT=BOTH       OUTPUT=BOTH    
 IEMINT=       0   IEFINT=       0                     IEDINT=       0
                                                       MORB  =       0
          EXTRAPOLATION IN EFFECT
 ORBITAL PRINTING OPTION: NPREO=     1    32     2     1

     -------------------------------
     INTEGRAL TRANSFORMATION OPTIONS
     -------------------------------
     NWORD  =            0
     CUTOFF = 1.0E-09     MPTRAN =       0
     DIRTRF =       T     AOINTS =DUP     

          ----------------------
          INTEGRAL INPUT OPTIONS
          ----------------------
 NOPK  =       1 NORDER=       0 SCHWRZ=       T

     ------------------------------------------
     THE POINT GROUP IS CS , NAXIS= 0, ORDER= 2
     ------------------------------------------

     DIMENSIONS OF THE SYMMETRY SUBSPACES ARE
 A'  =   19     A'' =   13

 ..... DONE SETTING UP THE RUN .....
 STEP CPU TIME =     0.02 TOTAL CPU TIME =          0.0 (      0.0 MIN)
 TOTAL WALL CLOCK TIME=          0.0 SECONDS, CPU UTILIZATION IS    50.00%


          -----------------------------
          STATIONARY POINT LOCATION RUN
          -----------------------------

 OBTAINING INITIAL HESSIAN, HESS=GUESS   
 CARTESIAN COORDINATE OPTIMIZATION USING BADGER'S RULE FORCE CONSTANT GUESS

          PARAMETERS CONTROLLING GEOMETRY SEARCH ARE
          METHOD =QA                  UPHESS =BFGS    
          NNEG   =         0          NFRZ   =         0
          NSTEP  =       999          IFOLOW =         1
          HESS   =GUESS               RESTAR =         F
          IHREP  =         0          HSSEND =         F
          NPRT   =         0          NPUN   =         0
          OPTTOL = 5.000E-04          RMIN   = 1.500E-03
          RMAX   = 1.000E-01          RLIM   = 7.000E-02
          DXMAX  = 3.000E-01          PURIFY =         F
          MOVIE  =         F          TRUPD  =         T
          TRMAX  = 5.000E-01          TRMIN  = 5.000E-02
          ITBMAT =         5          STPT   =         F
          STSTEP = 1.000E-02          PROJCT=          T

 BEGINNING GEOMETRY SEARCH POINT NSERCH=   0 ...

 COORDINATES OF SYMMETRY UNIQUE ATOMS (ANGS)
   ATOM   CHARGE       X              Y              Z
 ------------------------------------------------------------
 C           6.0  -0.8600000000   0.1600000000  -0.7500000000
 C           6.0  -0.3600000000   1.4800000000  -1.2300000000
 C           6.0  -0.4000000000   2.4000000000  -0.0000000000
 H           1.0  -1.5700000000  -0.3900000000   1.3500000000
 BR         35.0   0.4900000000  -1.0000000000   0.0000000000
 H           1.0  -1.0200000000   1.8800000000  -2.0100000000
 H           1.0   0.6500000000   1.4500000000  -1.6600000000
 H           1.0  -1.3500000000   2.9600000000  -0.0000000000
 H           1.0   0.4000000000   3.1400000000  -0.0000000000
 COORDINATES OF ALL ATOMS ARE (ANGS)
   ATOM   CHARGE       X              Y              Z
 ------------------------------------------------------------
 C           6.0  -0.8600000000   0.1600000000   0.7500000000
 C           6.0  -0.8600000000   0.1600000000  -0.7500000000
 C           6.0  -0.3600000000   1.4800000000   1.2300000000
 C           6.0  -0.3600000000   1.4800000000  -1.2300000000
 C           6.0  -0.4000000000   2.4000000000  -0.0000000000
 H           1.0  -1.5700000000  -0.3900000000  -1.3500000000
 H           1.0  -1.5700000000  -0.3900000000   1.3500000000
 BR         35.0   0.4900000000  -1.0000000000   0.0000000000
 H           1.0  -1.0200000000   1.8800000000   2.0100000000
 H           1.0  -1.0200000000   1.8800000000  -2.0100000000
 H           1.0   0.6500000000   1.4500000000   1.6600000000
 H           1.0   0.6500000000   1.4500000000  -1.6600000000
 H           1.0  -1.3500000000   2.9600000000  -0.0000000000
 H           1.0   0.4000000000   3.1400000000  -0.0000000000

          ********************
          1 ELECTRON INTEGRALS
          ********************

          **************************
          1 AND 2 ELECTRON INTEGRALS
          **************************

 MOPAC ONE- AND TWO-ELECTRON INTEGRALS REQUIRE      3064 WORDS.
 ...... END OF ONE- AND TWO-ELECTRON INTEGRALS......
 STEP CPU TIME =     0.01 TOTAL CPU TIME =          0.0 (      0.0 MIN)
 TOTAL WALL CLOCK TIME=          0.1 SECONDS, CPU UTILIZATION IS    60.00%
 ...... END OF ONE-ELECTRON INTEGRALS ......
 STEP CPU TIME =     0.01 TOTAL CPU TIME =          0.0 (      0.0 MIN)
 TOTAL WALL CLOCK TIME=          0.1 SECONDS, CPU UTILIZATION IS    80.00%

          -------------
          GUESS OPTIONS
          -------------
          GUESS =HUCKEL            NORB  =       0          NORDER=       0
          MIX   =       F          PRTMO =       F          PUNMO =       F
          TOLZ  = 1.0E-08          TOLE  = 1.0E-05
          SYMDEN=       F          PURIFY=       F

 INITIAL GUESS ORBITALS GENERATED BY HUCKEL   ROUTINE.

 SYMMETRIES FOR INITIAL GUESS ORBITALS FOLLOW.   BOTH SET(S).
    17 ORBITALS ARE OCCUPIED (    0 CORE ORBITALS).
     1=A'       2=A''      3=A'       4=A'       5=A'       6=A''      7=A'  
     8=A'       9=A''     10=A'      11=A'      12=A''     13=A''     14=A'  
    15=A'      16=A''     17=A'      18=A''     19=A'      20=A''     21=A'  
    22=A''     23=A'      24=A'      25=A''     26=A''     27=A'  
 ...... END OF INITIAL ORBITAL SELECTION ......
 STEP CPU TIME =     0.01 TOTAL CPU TIME =          0.0 (      0.0 MIN)
 TOTAL WALL CLOCK TIME=          0.1 SECONDS, CPU UTILIZATION IS    83.33%

          --------------------------
               R-PM3 SCF CALCULATION
          --------------------------

     NUCLEAR ENERGY =       113.9750680386
     MAXIT =  200     NPUNCH=    2
     EXTRAP=T  DAMP=F  SHIFT=F  RSTRCT=F  DIIS=F  DEM=F  SOSCF=F
     DENSITY MATRIX CONV=  2.00E-05
     MEMORY REQUIRED FOR RHF ITERS=      9848 WORDS.

                                                                                   NONZERO     BLOCKS
 ITER EX DEM     TOTAL ENERGY        E CHANGE  DENSITY CHANGE    DIIS ERROR      INTEGRALS    SKIPPED
   1  0  0      -38.6223909949   -38.6223909949   0.255360979   0.000000000              0          0
   2  1  0      -38.9195618170    -0.2971708221   0.070234639   0.000000000              0          0
   3  2  0      -38.9451935884    -0.0256317715   0.026562796   0.000000000              0          0
   4  3  0      -38.9484441812    -0.0032505927   0.012857408   0.000000000              0          0
   5  0  0      -38.9490148115    -0.0005706303   0.013029599   0.000000000              0          0
   6  1  0      -38.9491798842    -0.0001650727   0.000315684   0.000000000              0          0
   7  2  0      -38.9491803811    -0.0000004970   0.000189277   0.000000000              0          0
   8  3  0      -38.9491805146    -0.0000001334   0.000113751   0.000000000              0          0
   9  4  0      -38.9491805557    -0.0000000411   0.000067550   0.000000000              0          0
  10  5  0      -38.9491805692    -0.0000000135   0.000039746   0.000000000              0          0
  11  6  0      -38.9491805738    -0.0000000046   0.000023258   0.000000000              0          0
  12  7  0      -38.9491805754    -0.0000000016   0.000013571   0.000000000              0          0

          -----------------
          DENSITY CONVERGED
          -----------------
     TIME TO FORM FOCK OPERATORS=       0.0 SECONDS (       0.0 SEC/ITER)
     FOCK TIME ON FIRST ITERATION=       0.0, LAST ITERATION=       0.0
     TIME TO SOLVE SCF EQUATIONS=       0.1 SECONDS (       0.0 SEC/ITER)

 FINAL R-PM3 ENERGY IS      -38.9491805754 AFTER  12 ITERATIONS

 HEAT OF FORMATION IS       223.46711 KCAL/MOL


          ------------
          EIGENVECTORS
          ------------

                      1          2          3          4          5
                   -1.6843    -1.2739    -1.2536    -1.1303    -0.9427
                     A'         A'         A''        A'         A'  
    1  C  1  S    0.414057  -0.368026   0.311984  -0.185201   0.071702
    2  C  1  X    0.037534  -0.005507   0.035255   0.063714  -0.098016
    3  C  1  Y    0.067412   0.133995   0.082435  -0.021883  -0.211867
    4  C  1  Z   -0.076033   0.127987   0.148011   0.029288  -0.238107
    5  C  2  S    0.414057  -0.368026  -0.311984  -0.185201   0.071702
    6  C  2  X    0.037534  -0.005507  -0.035255   0.063714  -0.098016
    7  C  2  Y    0.067412   0.133995  -0.082435  -0.021883  -0.211867
    8  C  2  Z    0.076033  -0.127987   0.148011  -0.029288   0.238107
    9  C  3  S    0.381652   0.193326   0.481506   0.016201  -0.289128
   10  C  3  X   -0.021560   0.020900  -0.024430   0.034316  -0.018861
   11  C  3  Y   -0.032549   0.140408  -0.060883   0.087833   0.175540
   12  C  3  Z   -0.087085  -0.039140   0.040087  -0.010116  -0.164901
   13  C  4  S    0.381652   0.193326  -0.481506   0.016201  -0.289128
   14  C  4  X   -0.021560   0.020900   0.024430   0.034316  -0.018861
   15  C  4  Y   -0.032549   0.140408   0.060883   0.087833   0.175540
   16  C  4  Z    0.087085   0.039140   0.040087   0.010116   0.164901
   17  C  5  S    0.367745   0.448523   0.000000   0.190126   0.430103
   18  C  5  X   -0.006474   0.010554  -0.000000   0.015615  -0.025907
   19  C  5  Y   -0.090882   0.002783   0.000000   0.034012   0.158791
   20  C  5  Z    0.000000  -0.000000   0.187156  -0.000000   0.000000
   21  H  6  S    0.134809  -0.156614  -0.148561  -0.088825   0.051983
   22  H  7  S    0.134809  -0.156614   0.148561  -0.088825   0.051983
   23  BR 8  S    0.096111  -0.387384  -0.000000   0.902526  -0.080920
   24  BR 8  X   -0.092819   0.159859   0.000000   0.098821  -0.167563
   25  BR 8  Y    0.105954  -0.095105  -0.000000  -0.070189   0.014487
   26  BR 8  Z    0.000000  -0.000000   0.102968   0.000000  -0.000000
   27  H  9  S    0.137327   0.090141   0.219369   0.010436  -0.147457
   28  H 10  S    0.137327   0.090141  -0.219369   0.010436  -0.147457
   29  H 11  S    0.141651   0.084227   0.204826   0.027583  -0.181671
   30  H 12  S    0.141651   0.084227  -0.204826   0.027583  -0.181671
   31  H 13  S    0.142555   0.189495   0.000000   0.083919   0.252002
   32  H 14  S    0.130308   0.202252   0.000000   0.103631   0.243534

                      6          7          8          9         10
                   -0.9226    -0.8687    -0.8145    -0.7253    -0.7182
                     A''        A'         A'         A''        A'  
    1  C  1  S    0.386141   0.019678  -0.044449   0.011022   0.044818
    2  C  1  X   -0.045817  -0.315033   0.147225   0.317128  -0.145063
    3  C  1  Y   -0.124137  -0.180794  -0.317145   0.070324   0.056178
    4  C  1  Z    0.173868   0.307165   0.007209  -0.044029   0.243248
    5  C  2  S   -0.386141   0.019678  -0.044449  -0.011022   0.044818
    6  C  2  X    0.045817  -0.315033   0.147225  -0.317128  -0.145063
    7  C  2  Y    0.124137  -0.180794  -0.317145  -0.070324   0.056178
    8  C  2  Z    0.173868  -0.307165  -0.007209  -0.044029  -0.243248
    9  C  3  S   -0.242551   0.002691   0.031559   0.024802  -0.037072
   10  C  3  X   -0.071807  -0.117162   0.331952   0.318154   0.185716
   11  C  3  Y   -0.215656   0.092445   0.076467  -0.255680  -0.104741
   12  C  3  Z   -0.036914   0.233292   0.194913  -0.045856  -0.281384
   13  C  4  S    0.242551   0.002691   0.031559  -0.024802  -0.037072
   14  C  4  X    0.071807  -0.117162   0.331952  -0.318154   0.185716
   15  C  4  Y    0.215656   0.092445   0.076467   0.255680  -0.104741
   16  C  4  Z   -0.036914  -0.233292  -0.194913  -0.045856   0.281384
   17  C  5  S    0.000000   0.002000  -0.034033  -0.000000   0.107827
   18  C  5  X   -0.000000  -0.084256   0.296997  -0.000000   0.362058
   19  C  5  Y    0.000000   0.187520   0.160883   0.000000  -0.190625
   20  C  5  Z   -0.251277   0.000000   0.000000  -0.165214  -0.000000
   21  H  6  S   -0.298113   0.319713   0.017965   0.206273   0.189235
   22  H  7  S    0.298113   0.319713   0.017965  -0.206273   0.189235
   23  BR 8  S   -0.000000   0.035489  -0.079242  -0.000000   0.018989
   24  BR 8  X   -0.000000   0.018419  -0.244059  -0.000000   0.192702
   25  BR 8  Y   -0.000000  -0.244300   0.197203   0.000000  -0.178794
   26  BR 8  Z    0.227737  -0.000000  -0.000000   0.360047   0.000000
   27  H  9  S   -0.144832   0.184681  -0.005518  -0.228157  -0.284597
   28  H 10  S    0.144832   0.184681  -0.005518   0.228157  -0.284597
   29  H 11  S   -0.154753  -0.007974   0.282029   0.223704   0.030154
   30  H 12  S    0.154753  -0.007974   0.282029  -0.223704   0.030154
   31  H 13  S    0.000000   0.122087  -0.131603   0.000000  -0.263270
   32  H 14  S    0.000000   0.044962   0.210455  -0.000000   0.154815

                     11         12         13         14         15
                   -0.7090    -0.6997    -0.6612    -0.6591    -0.6308
                     A''        A'         A''        A'         A'' 
    1  C  1  S    0.043440  -0.046611   0.070213   0.097496  -0.063942
    2  C  1  X    0.085688  -0.283114   0.103513  -0.158530   0.164482
    3  C  1  Y    0.414963  -0.047778   0.004520   0.204674  -0.013748
    4  C  1  Z    0.035266  -0.369144  -0.059228  -0.226127  -0.051102
    5  C  2  S   -0.043440  -0.046611  -0.070213   0.097496   0.063942
    6  C  2  X   -0.085688  -0.283114  -0.103513  -0.158530  -0.164482
    7  C  2  Y   -0.414963  -0.047778  -0.004520   0.204674   0.013748
    8  C  2  Z    0.035266   0.369144  -0.059228   0.226127  -0.051102
    9  C  3  S    0.050290   0.107643   0.035879  -0.070969  -0.023265
   10  C  3  X   -0.256470   0.064032  -0.100163   0.017660  -0.290158
   11  C  3  Y   -0.303556   0.267596   0.172999  -0.115664   0.015420
   12  C  3  Z   -0.134303   0.001038  -0.424625   0.186392   0.241705
   13  C  4  S   -0.050290   0.107643  -0.035879  -0.070969   0.023265
   14  C  4  X    0.256470   0.064032   0.100163   0.017660   0.290158
   15  C  4  Y    0.303556   0.267596  -0.172999  -0.115664  -0.015420
   16  C  4  Z   -0.134303  -0.001038  -0.424625  -0.186392   0.241705
   17  C  5  S    0.000000  -0.095698   0.000000  -0.065231  -0.000000
   18  C  5  X   -0.000000   0.119638  -0.000000   0.224693   0.000000
   19  C  5  Y    0.000000  -0.331515  -0.000000   0.430003   0.000000
   20  C  5  Z   -0.111812  -0.000000   0.517281   0.000000  -0.198371
   21  H  6  S    0.172284  -0.021169   0.048999  -0.050148   0.163517
   22  H  7  S   -0.172284  -0.021169  -0.048999  -0.050148  -0.163517
   23  BR 8  S   -0.000000   0.011876  -0.000000   0.004744   0.000000
   24  BR 8  X   -0.000000   0.020334  -0.000000   0.515216  -0.000000
   25  BR 8  Y    0.000000  -0.350016  -0.000000   0.065305  -0.000000
   26  BR 8  Z   -0.355727  -0.000000   0.365702   0.000000   0.583577
   27  H  9  S   -0.021240   0.099325  -0.131845   0.030299   0.286214
   28  H 10  S    0.021240   0.099325   0.131845   0.030299  -0.286214
   29  H 11  S   -0.197961   0.094571  -0.197050   0.055489  -0.155086
   30  H 12  S    0.197961   0.094571   0.197050   0.055489   0.155086
   31  H 13  S    0.000000  -0.255857   0.000000  -0.005272  -0.000000
   32  H 14  S    0.000000  -0.152444  -0.000000   0.339568   0.000000

                     16         17         18         19         20
                   -0.6303    -0.5918    -0.2589    -0.2494    -0.1298
                     A'         A'         A'         A''        A'' 
    1  C  1  S   -0.031401  -0.021338   0.150693  -0.220496  -0.384465
    2  C  1  X   -0.085411   0.069009   0.382124  -0.458968   0.223054
    3  C  1  Y   -0.158227  -0.013885  -0.267869   0.317412  -0.070249
    4  C  1  Z    0.021605   0.061734   0.003680   0.039135   0.482645
    5  C  2  S   -0.031401  -0.021338   0.150693   0.220496   0.384465
    6  C  2  X   -0.085411   0.069009   0.382124   0.458968  -0.223054
    7  C  2  Y   -0.158227  -0.013885  -0.267869  -0.317412   0.070249
    8  C  2  Z   -0.021605  -0.061734  -0.003680   0.039135   0.482645
    9  C  3  S   -0.002704   0.019991  -0.011291   0.036472   0.054066
   10  C  3  X    0.033802  -0.307803  -0.028174   0.010433  -0.007864
   11  C  3  Y    0.165534   0.118442   0.048093  -0.073409  -0.089705
   12  C  3  Z   -0.051663  -0.007032   0.004924  -0.040285   0.003397
   13  C  4  S   -0.002704   0.019991  -0.011291  -0.036472  -0.054066
   14  C  4  X    0.033802  -0.307803  -0.028174  -0.010433   0.007864
   15  C  4  Y    0.165534   0.118442   0.048093   0.073409   0.089705
   16  C  4  Z    0.051663   0.007032  -0.004924  -0.040285   0.003397
   17  C  5  S    0.021648   0.016884   0.030938   0.000000   0.000000
   18  C  5  X   -0.142316   0.473273   0.009360   0.000000  -0.000000
   19  C  5  Y   -0.222913  -0.091394  -0.043714  -0.000000  -0.000000
   20  C  5  Z   -0.000000   0.000000   0.000000  -0.051068   0.129350
   21  H  6  S    0.107301  -0.023494  -0.018948  -0.105940  -0.189253
   22  H  7  S    0.107301  -0.023494  -0.018948   0.105940   0.189253
   23  BR 8  S   -0.003395   0.012700  -0.105830  -0.000000   0.000000
   24  BR 8  X    0.530109  -0.109010   0.519779   0.000000  -0.000000
   25  BR 8  Y    0.672345   0.243944  -0.452723  -0.000000   0.000000
   26  BR 8  Z    0.000000  -0.000000  -0.000000   0.453795   0.003538
   27  H  9  S    0.004353   0.207893   0.067412  -0.085706  -0.032760
   28  H 10  S    0.004353   0.207893   0.067412   0.085706   0.032760
   29  H 11  S    0.020176  -0.263682  -0.079488   0.084616  -0.090815
   30  H 12  S    0.020176  -0.263682  -0.079488  -0.084616   0.090815
   31  H 13  S    0.017196  -0.403011  -0.024258  -0.000000  -0.000000
   32  H 14  S   -0.205740   0.264423  -0.013372  -0.000000  -0.000000

                     21         22         23         24         25
                   -0.0841    -0.0790    -0.0767    -0.0500    -0.0473
                     A'         A''        A'         A'         A'' 
    1  C  1  S    0.305141   0.197061  -0.121331  -0.047564   0.025766
    2  C  1  X    0.001186  -0.028798   0.267168   0.019190  -0.267263
    3  C  1  Y    0.222498   0.211488   0.306919   0.031621  -0.343712
    4  C  1  Z    0.237054   0.351227  -0.109124  -0.059684   0.160939
    5  C  2  S    0.305141  -0.197061  -0.121331  -0.047564  -0.025766
    6  C  2  X    0.001186   0.028798   0.267168   0.019190   0.267263
    7  C  2  Y    0.222498  -0.211488   0.306919   0.031621   0.343712
    8  C  2  Z   -0.237054   0.351227   0.109124   0.059684   0.160939
    9  C  3  S   -0.254894  -0.282768  -0.107963  -0.313399   0.242833
   10  C  3  X    0.061437   0.018619   0.092799   0.013598  -0.088977
   11  C  3  Y    0.369999   0.196486   0.218594  -0.302338  -0.131460
   12  C  3  Z    0.085650   0.201475  -0.050564   0.213376   0.043569
   13  C  4  S   -0.254894   0.282768  -0.107963  -0.313399  -0.242833
   14  C  4  X    0.061437  -0.018619   0.092799   0.013598   0.088977
   15  C  4  Y    0.369999  -0.196486   0.218594  -0.302338   0.131460
   16  C  4  Z   -0.085650   0.201475   0.050564  -0.213376   0.043569
   17  C  5  S    0.076223   0.000000  -0.096178   0.465464   0.000000
   18  C  5  X    0.011956   0.000000   0.013728   0.058835   0.000000
   19  C  5  Y   -0.037097  -0.000000   0.091066  -0.391329  -0.000000
   20  C  5  Z   -0.000000   0.306050  -0.000000  -0.000000  -0.016975
   21  H  6  S   -0.245595   0.258654   0.465594   0.070384   0.382284
   22  H  7  S   -0.245595  -0.258654   0.465594   0.070384  -0.382284
   23  BR 8  S    0.001477  -0.000000  -0.005618   0.000595  -0.000000
   24  BR 8  X   -0.028738   0.000000  -0.029369  -0.010157  -0.000000
   25  BR 8  Y   -0.008318  -0.000000  -0.017283   0.002065  -0.000000
   26  BR 8  Z   -0.000000   0.013271   0.000000  -0.000000   0.001838
   27  H  9  S    0.017009  -0.034476   0.099658   0.203437  -0.206180
   28  H 10  S    0.017009   0.034476   0.099658   0.203437   0.206180
   29  H 11  S    0.131662   0.133174   0.010936   0.105826  -0.094893
   30  H 12  S    0.131662  -0.133174   0.010936   0.105826   0.094893
   31  H 13  S   -0.043799  -0.000000   0.034267  -0.090204  -0.000000
   32  H 14  S   -0.101914  -0.000000  -0.024772  -0.135470  -0.000000

                     26         27         28         29         30
                   -0.0355    -0.0232    -0.0198    -0.0189    -0.0113
                     A'         A''        A'         A''        A'' 
    1  C  1  S   -0.048447   0.072948   0.003002  -0.000769   0.035827
    2  C  1  X    0.062057  -0.061399   0.045964   0.000337   0.120594
    3  C  1  Y   -0.029627   0.100560   0.074888   0.041479   0.141641
    4  C  1  Z   -0.037503   0.105889  -0.036097  -0.208312  -0.014672
    5  C  2  S   -0.048447  -0.072948   0.003002   0.000769  -0.035827
    6  C  2  X    0.062057   0.061399   0.045964  -0.000337  -0.120594
    7  C  2  Y   -0.029627  -0.100560   0.074888  -0.041479  -0.141641
    8  C  2  Z    0.037503   0.105889   0.036097  -0.208312  -0.014672
    9  C  3  S   -0.061250   0.098206   0.186597   0.015387   0.226469
   10  C  3  X   -0.390799   0.453084   0.012490   0.095509  -0.100907
   11  C  3  Y    0.040228   0.112722   0.078445  -0.233159   0.354552
   12  C  3  Z   -0.014450  -0.024483   0.367237   0.393436   0.196588
   13  C  4  S   -0.061250  -0.098206   0.186597  -0.015387  -0.226469
   14  C  4  X   -0.390799  -0.453084   0.012490  -0.095509   0.100907
   15  C  4  Y    0.040228  -0.112722   0.078445   0.233159  -0.354552
   16  C  4  Z    0.014450  -0.024483  -0.367237   0.393436   0.196588
   17  C  5  S    0.017232  -0.000000   0.343397  -0.000000  -0.000000
   18  C  5  X   -0.311230   0.000000  -0.044216   0.000000   0.000000
   19  C  5  Y   -0.002386  -0.000000   0.097422  -0.000000  -0.000000
   20  C  5  Z   -0.000000  -0.188140   0.000000   0.559694  -0.305214
   21  H  6  S    0.066048   0.075061   0.072355  -0.104211  -0.105415
   22  H  7  S    0.066048  -0.075061   0.072355   0.104211   0.105415
   23  BR 8  S   -0.010047   0.000000   0.001422  -0.000000   0.000000
   24  BR 8  X    0.012198   0.000000   0.000879  -0.000000  -0.000000
   25  BR 8  Y   -0.017610  -0.000000   0.004485  -0.000000   0.000000
   26  BR 8  Z    0.000000   0.027781   0.000000   0.011546  -0.005598
   27  H  9  S   -0.208112   0.189953  -0.357052  -0.136757  -0.414958
   28  H 10  S   -0.208112  -0.189953  -0.357052   0.136757   0.414958
   29  H 11  S    0.393020  -0.426084  -0.217958  -0.223860  -0.090424
   30  H 12  S    0.393020   0.426084  -0.217958   0.223860   0.090424
   31  H 13  S   -0.318959   0.000000  -0.279861   0.000000   0.000000
   32  H 14  S    0.250387   0.000000  -0.248564   0.000000   0.000000

                     31         32
                    0.0091     0.0126
                     A'         A'  
    1  C  1  S   -0.006615   0.031295
    2  C  1  X    0.042986   0.002915
    3  C  1  Y    0.018865   0.054848
    4  C  1  Z   -0.020286   0.015353
    5  C  2  S   -0.006615   0.031295
    6  C  2  X    0.042986   0.002915
    7  C  2  Y    0.018865   0.054848
    8  C  2  Z    0.020286  -0.015353
    9  C  3  S    0.011401   0.005328
   10  C  3  X   -0.189306   0.191774
   11  C  3  Y    0.048623   0.019423
   12  C  3  Z    0.195663   0.160416
   13  C  4  S    0.011401   0.005328
   14  C  4  X   -0.189306   0.191774
   15  C  4  Y    0.048623   0.019423
   16  C  4  Z   -0.195663  -0.160416
   17  C  5  S   -0.192532  -0.165944
   18  C  5  X    0.416779  -0.432543
   19  C  5  Y   -0.395730  -0.429315
   20  C  5  Z    0.000000  -0.000000
   21  H  6  S    0.036384   0.000669
   22  H  7  S    0.036384   0.000669
   23  BR 8  S   -0.003494   0.003243
   24  BR 8  X    0.005677  -0.006657
   25  BR 8  Y   -0.005507   0.005451
   26  BR 8  Z    0.000000   0.000000
   27  H  9  S   -0.234561  -0.006388
   28  H 10  S   -0.234561  -0.006388
   29  H 11  S    0.066443  -0.187742
   30  H 12  S    0.066443  -0.187742
   31  H 13  S    0.590880  -0.049674
   32  H 14  S    0.057866   0.627402
 ...... END OF RHF CALCULATION ......
 STEP CPU TIME =     0.05 TOTAL CPU TIME =          0.1 (      0.0 MIN)
 TOTAL WALL CLOCK TIME=          0.1 SECONDS, CPU UTILIZATION IS    83.33%

     ----------------------------------------------------------------
     PROPERTY VALUES FOR THE RHF   SELF-CONSISTENT FIELD WAVEFUNCTION
     ----------------------------------------------------------------

                    -------------
                    MOPAC CHARGES
                    -------------
         ATOM NO.   TYPE          CHARGE        ATOM  ELECTRON DENSITY
           1         C             -0.0087          4.0087
           2         C             -0.0087          4.0087
           3         C             -0.1327          4.1327
           4         C             -0.1327          4.1327
           5         C             -0.1015          4.1015
           6         H              0.1620          0.8380
           7         H              0.1620          0.8380
           8         BR             0.3927          6.6073
           9         H              0.1222          0.8778
          10         H              0.1222          0.8778
          11         H              0.1172          0.8828
          12         H              0.1172          0.8828
          13         H              0.0870          0.9130
          14         H              0.1020          0.8980

          ---------------------
          ELECTROSTATIC MOMENTS
          ---------------------

 POINT   1           X           Y           Z (ANGS)      CHARGE
                 0.001173    0.002656    0.000000        1.00 (A.U.)
         DX          DY          DZ         /D/  (DEBYE)
    -1.531126    0.647690    0.000000    1.662483
 ...... END OF PROPERTY EVALUATION ......
 STEP CPU TIME =     0.00 TOTAL CPU TIME =          0.1 (      0.0 MIN)
 TOTAL WALL CLOCK TIME=          0.1 SECONDS, CPU UTILIZATION IS    83.33%

          NSERCH=  0     ENERGY=     -38.9491806

                                 -----------------------
                                 GRADIENT (HARTREE/BOHR)
                                 -----------------------
        ATOM     ZNUC       DE/DX         DE/DY         DE/DZ
 --------------------------------------------------------------
    1  C            6.0     0.0239758    -0.0328320     0.0104878
    2  C            6.0     0.0239758    -0.0328320    -0.0104878
    3  C            6.0     0.0013451    -0.0019242     0.0100949
    4  C            6.0     0.0013451    -0.0019242    -0.0100949
    5  C            6.0     0.0049658     0.0102680     0.0000000
    6  H            1.0     0.0122801     0.0078934     0.0096223
    7  H            1.0     0.0122801     0.0078934    -0.0096223
    8  BR          35.0    -0.0704885     0.0483394     0.0000000
    9  H            1.0     0.0031279    -0.0009395    -0.0082047
   10  H            1.0     0.0031279    -0.0009395     0.0082047
   11  H            1.0    -0.0050974     0.0036347    -0.0042868
   12  H            1.0    -0.0050974     0.0036347     0.0042868
   13  H            1.0     0.0016971    -0.0045420     0.0000000
   14  H            1.0    -0.0074375    -0.0057304     0.0000000

          MAXIMUM GRADIENT = 0.0704885    RMS GRADIENT = 0.0170224

 NSERCH:   0  E=      -38.9491805754  GRAD. MAX=  0.0704885  R.M.S.=  0.0170224

          FORCE CONSTANT MATRIX NOT UPDATED --- TAKING FIRST STEP
          MIN SEARCH, CORRECT HESSIAN, TRYING PURE NR STEP
               NR STEP HAS LENGTH         =   0.713117
          TRIM/QA LAMBDA FOR NON-TS MODES =  -0.01633602
          TRIM/QA STEP HAS LENGTH         =   0.300000
          RADIUS OF STEP TAKEN=   0.30000  CURRENT TRUST RADIUS=   0.30000

 BEGINNING GEOMETRY SEARCH POINT NSERCH=   1 ...

 COORDINATES OF SYMMETRY UNIQUE ATOMS (ANGS)
   ATOM   CHARGE       X              Y              Z
 ------------------------------------------------------------
 C           6.0  -0.8983416269   0.1788780520  -0.7372404454
 C           6.0  -0.3748755897   1.4880181385  -1.2271255864
 C           6.0  -0.3977430996   2.4035348247   0.0000000000
 H           1.0  -1.5713879849  -0.4215751677   1.3635581696
 BR         35.0   0.5753188753  -0.9552456830   0.0000000000
 H           1.0  -1.0208944882   1.8738848890  -2.0374465375
 H           1.0   0.6324357869   1.4208180889  -1.6835895825
 H           1.0  -1.3257982154   3.0048829032   0.0000000000
 H           1.0   0.4343502453   3.1267799536   0.0000000000
 COORDINATES OF ALL ATOMS ARE (ANGS)
   ATOM   CHARGE       X              Y              Z
 ------------------------------------------------------------
 C           6.0  -0.8983416269   0.1788780520   0.7372404454
 C           6.0  -0.8983416269   0.1788780520  -0.7372404454
 C           6.0  -0.3748755897   1.4880181385   1.2271255864
 C           6.0  -0.3748755897   1.4880181385  -1.2271255864
 C           6.0  -0.3977430996   2.4035348247   0.0000000000
 H           1.0  -1.5713879849  -0.4215751677  -1.3635581696
 H           1.0  -1.5713879849  -0.4215751677   1.3635581696
 BR         35.0   0.5753188753  -0.9552456830   0.0000000000
 H           1.0  -1.0208944882   1.8738848890   2.0374465375
 H           1.0  -1.0208944882   1.8738848890  -2.0374465375
 H           1.0   0.6324357869   1.4208180889   1.6835895825
 H           1.0   0.6324357869   1.4208180889  -1.6835895825
 H           1.0  -1.3257982154   3.0048829032   0.0000000000
 H           1.0   0.4343502453   3.1267799536   0.0000000000

          INTERNUCLEAR DISTANCES (ANGS.)
          ------------------------------

                1 C          2 C          3 C          4 C          5 C     

   1 C       0.0000000    1.4744809 *  1.4925990 *  2.4179740 *  2.3965016 *
   2 C       1.4744809 *  0.0000000    2.4179740 *  1.4925990 *  2.3965016 *
   3 C       1.4925990 *  2.4179740 *  0.0000000    2.4542512 *  1.5311861 *
   4 C       2.4179740 *  1.4925990 *  2.4542512 *  0.0000000    1.5311861 *
   5 C       2.3965016 *  2.3965016 *  1.5311861 *  1.5311861 *  0.0000000  
   6 H       2.2862393 *  1.0980935 *  3.4336323    2.2576099 *  3.3493253  
   7 H       1.0980935 *  2.2862393 *  2.2576099 *  3.4336323    3.3493253  
   8 BR      2.0003588 *  2.0003588 *  2.8945198 *  2.8945198 *  3.4968923  
   9 H       2.1397671 *  3.2537602    1.1058271 *  3.3501738    2.1954578 *
  10 H       3.2537602    2.1397671 *  3.3501738    1.1058271 *  2.1954578 *
  11 H       2.1866118 *  3.1218765    1.1079492 *  3.0808205    2.2048752 *
  12 H       3.1218765    2.1866118 *  3.0808205    1.1079492 *  2.2048752 *
  13 H       2.9517022 *  2.9517022 *  2.1704769 *  2.1704769 *  1.1058507 *
  14 H       3.3180893    3.3180893    2.2014141 *  2.2014141 *  1.1024803 *

                6 H          7 H          8 BR         9 H         10 H     

   1 C       2.2862393 *  1.0980935 *  2.0003588 *  2.1397671 *  3.2537602  
   2 C       1.0980935 *  2.2862393 *  2.0003588 *  3.2537602    2.1397671 *
   3 C       3.4336323    2.2576099 *  2.8945198 *  1.1058271 *  3.3501738  
   4 C       2.2576099 *  3.4336323    2.8945198 *  3.3501738    1.1058271 *
   5 C       3.3493253    3.3493253    3.4968923    2.1954578 *  2.1954578 *
   6 H       0.0000000    2.7271163 *  2.5985468 *  4.1399291    2.4548535 *
   7 H       2.7271163 *  0.0000000    2.5985468 *  2.4548535 *  4.1399291  
   8 BR      2.5985468 *  2.5985468 *  0.0000000    3.8344576    3.8344576  
   9 H       4.1399291    2.4548535 *  3.8344576    0.0000000    4.0748931  
  10 H       2.4548535 *  4.1399291    3.8344576    4.0748931    0.0000000  
  11 H       4.1876439    2.8902720 *  2.9126303 *  1.7504243 *  4.0969355  
  12 H       2.8902720 *  4.1876439    2.9126303 *  4.0969355    1.7504243 *
  13 H       3.6959735    3.6959735    4.3928197    2.3501726 *  2.3501726 *
  14 H       4.2980345    4.2980345    4.0844590    2.7997628 *  2.7997628 *

               11 H         12 H         13 H         14 H     

   1 C       2.1866118 *  3.1218765    2.9517022 *  3.3180893  
   2 C       3.1218765    2.1866118 *  2.9517022 *  3.3180893  
   3 C       1.1079492 *  3.0808205    2.1704769 *  2.2014141 *
   4 C       3.0808205    1.1079492 *  2.1704769 *  2.2014141 *
   5 C       2.2048752 *  2.2048752 *  1.1058507 *  1.1024803 *
   6 H       4.1876439    2.8902720 *  3.6959735    4.2980345  
   7 H       2.8902720 *  4.1876439    3.6959735    4.2980345  
   8 BR      2.9126303 *  2.9126303 *  4.3928197    4.0844590  
   9 H       1.7504243 *  4.0969355    2.3501726 *  2.7997628 *
  10 H       4.0969355    1.7504243 *  2.3501726 *  2.7997628 *
  11 H       0.0000000    3.3671792    3.0295900    2.4049985 *
  12 H       3.3671792    0.0000000    3.0295900    2.4049985 *
  13 H       3.0295900    3.0295900    0.0000000    1.7643643 *
  14 H       2.4049985 *  2.4049985 *  1.7643643 *  0.0000000  

  * ... LESS THAN  3.000


 MOPAC ONE- AND TWO-ELECTRON INTEGRALS REQUIRE      3064 WORDS.
 ...... END OF ONE- AND TWO-ELECTRON INTEGRALS......
 STEP CPU TIME =     0.01 TOTAL CPU TIME =          0.1 (      0.0 MIN)
 TOTAL WALL CLOCK TIME=          0.1 SECONDS, CPU UTILIZATION IS    84.62%
 ...... END OF ONE-ELECTRON INTEGRALS ......
 STEP CPU TIME =     0.00 TOTAL CPU TIME =          0.1 (      0.0 MIN)
 TOTAL WALL CLOCK TIME=          0.1 SECONDS, CPU UTILIZATION IS    84.62%

          --------------------------
               R-PM3 SCF CALCULATION
          --------------------------
     DENSITY MATRIX CONV=  1.00E-04

                                                                                   NONZERO     BLOCKS
 ITER EX DEM     TOTAL ENERGY        E CHANGE  DENSITY CHANGE    DIIS ERROR      INTEGRALS    SKIPPED
   1  0  0      -38.9574405547   -38.9574405547   0.044154557   0.000000000              0          0
   2  1  0      -38.9612259370    -0.0037853823   0.020181442   0.000000000              0          0
   3  2  0      -38.9619801365    -0.0007541995   0.012081929   0.000000000              0          0
   4  3  0      -38.9621955600    -0.0002154235   0.008308670   0.000000000              0          0
   5  0  0      -38.9622691459    -0.0000735859   0.016924289   0.000000000              0          0
   6  1  0      -38.9623168336    -0.0000476877   0.000364743   0.000000000              0          0
   7  2  0      -38.9623171548    -0.0000003211   0.000255658   0.000000000              0          0
   8  3  0      -38.9623172639    -0.0000001092   0.000179237   0.000000000              0          0
   9  4  0      -38.9623173048    -0.0000000409   0.000125205   0.000000000              0          0
  10  5  0      -38.9623173213    -0.0000000164   0.000087217   0.000000000              0          0

          -----------------
          DENSITY CONVERGED
          -----------------
     TIME TO FORM FOCK OPERATORS=       0.0 SECONDS (       0.0 SEC/ITER)
     FOCK TIME ON FIRST ITERATION=       0.0, LAST ITERATION=       0.0
     TIME TO SOLVE SCF EQUATIONS=       0.0 SECONDS (       0.0 SEC/ITER)

 FINAL R-PM3 ENERGY IS      -38.9623173213 AFTER  10 ITERATIONS

 HEAT OF FORMATION IS       215.22343 KCAL/MOL

 ...... END OF RHF CALCULATION ......
 STEP CPU TIME =     0.05 TOTAL CPU TIME =          0.2 (      0.0 MIN)
 TOTAL WALL CLOCK TIME=          0.2 SECONDS, CPU UTILIZATION IS    88.89%

          NSERCH=  1     ENERGY=     -38.9623173

                                 -----------------------
                                 GRADIENT (HARTREE/BOHR)
                                 -----------------------
        ATOM     ZNUC       DE/DX         DE/DY         DE/DZ
 --------------------------------------------------------------
    1  C            6.0     0.0156241    -0.0157176    -0.0003281
    2  C            6.0     0.0156241    -0.0157176     0.0003281
    3  C            6.0     0.0032850     0.0020168     0.0013790
    4  C            6.0     0.0032850     0.0020168    -0.0013790
    5  C            6.0    -0.0020921    -0.0021560     0.0000000
    6  H            1.0     0.0030717     0.0021177     0.0016008
    7  H            1.0     0.0030717     0.0021177    -0.0016008
    8  BR          35.0    -0.0412074     0.0263147     0.0000000
    9  H            1.0     0.0015170    -0.0014000    -0.0025930
   10  H            1.0     0.0015170    -0.0014000     0.0025930
   11  H            1.0    -0.0011488     0.0025035    -0.0000009
   12  H            1.0    -0.0011488     0.0025035     0.0000009
   13  H            1.0     0.0002413    -0.0025226     0.0000000
   14  H            1.0    -0.0016400    -0.0006771     0.0000000

          MAXIMUM GRADIENT = 0.0412074    RMS GRADIENT = 0.0091225

 NSERCH:   1  E=      -38.9623173213  GRAD. MAX=  0.0412074  R.M.S.=  0.0091225

          HESSIAN UPDATED USING THE BFGS FORMULA
             ACTUAL ENERGY CHANGE WAS  -0.0131367458
          PREDICTED ENERGY CHANGE WAS  -0.0093273134 RATIO=  1.408
          MIN SEARCH, CORRECT HESSIAN, TRYING PURE NR STEP
               NR STEP HAS LENGTH         =   1.147902
          TRIM/QA LAMBDA FOR NON-TS MODES =  -0.02625510
          TRIM/QA STEP HAS LENGTH         =   0.300000
          RADIUS OF STEP TAKEN=   0.30000  CURRENT TRUST RADIUS=   0.30000

 BEGINNING GEOMETRY SEARCH POINT NSERCH=   2 ...

 COORDINATES OF SYMMETRY UNIQUE ATOMS (ANGS)
   ATOM   CHARGE       X              Y              Z
 ------------------------------------------------------------
 C           6.0  -0.9300331676   0.1891227333  -0.7267247713
 C           6.0  -0.4010488367   1.4892258415  -1.2259708634
 C           6.0  -0.3809087567   2.4120607492   0.0000000000
 H           1.0  -1.5772412111  -0.4507389930   1.3580149639
 BR         35.0   0.6786095083  -0.9201030993   0.0000000000
 H           1.0  -1.0324724524   1.8876348650  -2.0476429473
 H           1.0   0.6149680977   1.3883522857  -1.6804288993
 H           1.0  -1.2960741231   3.0431534995   0.0000000000
 H           1.0   0.4700285117   3.1176953856   0.0000000000
 COORDINATES OF ALL ATOMS ARE (ANGS)
   ATOM   CHARGE       X              Y              Z
 ------------------------------------------------------------
 C           6.0  -0.9300331676   0.1891227333   0.7267247713
 C           6.0  -0.9300331676   0.1891227333  -0.7267247713
 C           6.0  -0.4010488367   1.4892258415   1.2259708634
 C           6.0  -0.4010488367   1.4892258415  -1.2259708634
 C           6.0  -0.3809087567   2.4120607492   0.0000000000
 H           1.0  -1.5772412111  -0.4507389930  -1.3580149639
 H           1.0  -1.5772412111  -0.4507389930   1.3580149639
 BR         35.0   0.6786095083  -0.9201030993   0.0000000000
 H           1.0  -1.0324724524   1.8876348650   2.0476429473
 H           1.0  -1.0324724524   1.8876348650  -2.0476429473
 H           1.0   0.6149680977   1.3883522857   1.6804288993
 H           1.0   0.6149680977   1.3883522857  -1.6804288993
 H           1.0  -1.2960741231   3.0431534995   0.0000000000
 H           1.0   0.4700285117   3.1176953856   0.0000000000

          INTERNUCLEAR DISTANCES (ANGS.)
          ------------------------------

                1 C          2 C          3 C          4 C          5 C     

   1 C       0.0000000    1.4534495 *  1.4897447 *  2.4048103 *  2.4023155 *
   2 C       1.4534495 *  0.0000000    2.4048103 *  1.4897447 *  2.4023155 *
   3 C       1.4897447 *  2.4048103 *  0.0000000    2.4519417 *  1.5346121 *
   4 C       2.4048103 *  1.4897447 *  2.4519417 *  0.0000000    1.5346121 *
   5 C       2.4023155 *  2.4023155 *  1.5346121 *  1.5346121 *  0.0000000  
   6 H       2.2747398 *  1.1076229 *  3.4385862    2.2725157 *  3.3868921  
   7 H       1.1076229 *  2.2747398 *  2.2725157 *  3.4385862    3.3868921  
   8 BR      2.0847643 *  2.0847643 *  2.9109333 *  2.9109333 *  3.4965547  
   9 H       2.1541268 *  3.2546203    1.1102119 *  3.3576737    2.2118769 *
  10 H       3.2546203    2.1541268 *  3.3576737    1.1102119 *  2.2118769 *
  11 H       2.1759439 *  3.1015430    1.1175858 *  3.0805236    2.2053551 *
  12 H       3.1015430    2.1759439 *  3.0805236    1.1175858 *  2.2053551 *
  13 H       2.9677612 *  2.9677612 *  2.1722721 *  2.1722721 *  1.1116680 *
  14 H       3.3263853    3.3263853    2.2166852 *  2.2166852 *  1.1054476 *

                6 H          7 H          8 BR         9 H         10 H     

   1 C       2.2747398 *  1.1076229 *  2.0847643 *  2.1541268 *  3.2546203  
   2 C       1.1076229 *  2.2747398 *  2.0847643 *  3.2546203    2.1541268 *
   3 C       3.4385862    2.2725157 *  2.9109333 *  1.1102119 *  3.3576737  
   4 C       2.2725157 *  3.4385862    2.9109333 *  3.3576737    1.1102119 *
   5 C       3.3868921    3.3868921    3.4965547    2.2118769 *  2.2118769 *
   6 H       0.0000000    2.7160299 *  2.6745784 *  4.1669259    2.4980697 *
   7 H       2.7160299 *  0.0000000    2.6745784 *  2.4980697 *  4.1669259  
   8 BR      2.6745784 *  2.6745784 *  0.0000000    3.8735043    3.8735043  
   9 H       4.1669259    2.4980697 *  3.8735043    0.0000000    4.0952859  
  10 H       2.4980697 *  4.1669259    3.8735043    4.0952859    0.0000000  
  11 H       4.1737489    2.8795814 *  2.8560213 *  1.7601675 *  4.1063199  
  12 H       2.8795814 *  4.1737489    2.8560213 *  4.1063199    1.7601675 *
  13 H       3.7590616    3.7590616    4.4279542    2.3659144 *  2.3659144 *
  14 H       4.3323483    4.3323483    4.0431822    2.8219496 *  2.8219496 *

               11 H         12 H         13 H         14 H     

   1 C       2.1759439 *  3.1015430    2.9677612 *  3.3263853  
   2 C       3.1015430    2.1759439 *  2.9677612 *  3.3263853  
   3 C       1.1175858 *  3.0805236    2.1722721 *  2.2166852 *
   4 C       3.0805236    1.1175858 *  2.1722721 *  2.2166852 *
   5 C       2.2053551 *  2.2053551 *  1.1116680 *  1.1054476 *
   6 H       4.1737489    2.8795814 *  3.7590616    4.3323483  
   7 H       2.8795814 *  4.1737489    3.7590616    4.3323483  
   8 BR      2.8560213 *  2.8560213 *  4.4279542    4.0431822  
   9 H       1.7601675 *  4.1063199    2.3659144 *  2.8219496 *
  10 H       4.1063199    1.7601675 *  2.3659144 *  2.8219496 *
  11 H       0.0000000    3.3608578    3.0355050    2.4156731 *
  12 H       3.3608578    0.0000000    3.0355050    2.4156731 *
  13 H       3.0355050    3.0355050    0.0000000    1.7676750 *
  14 H       2.4156731 *  2.4156731 *  1.7676750 *  0.0000000  

  * ... LESS THAN  3.000


 MOPAC ONE- AND TWO-ELECTRON INTEGRALS REQUIRE      3064 WORDS.
 ...... END OF ONE- AND TWO-ELECTRON INTEGRALS......
 STEP CPU TIME =     0.01 TOTAL CPU TIME =          0.2 (      0.0 MIN)
 TOTAL WALL CLOCK TIME=          0.2 SECONDS, CPU UTILIZATION IS    89.47%
 ...... END OF ONE-ELECTRON INTEGRALS ......
 STEP CPU TIME =     0.00 TOTAL CPU TIME =          0.2 (      0.0 MIN)
 TOTAL WALL CLOCK TIME=          0.2 SECONDS, CPU UTILIZATION IS    89.47%

          --------------------------
               R-PM3 SCF CALCULATION
          --------------------------
     DENSITY MATRIX CONV=  1.00E-04

                                                                                   NONZERO     BLOCKS
 ITER EX DEM     TOTAL ENERGY        E CHANGE  DENSITY CHANGE    DIIS ERROR      INTEGRALS    SKIPPED
   1  0  0      -38.9642470516   -38.9642470516   0.040652635   0.000000000              0          0
   2  1  0      -38.9677040967    -0.0034570451   0.018538487   0.000000000              0          0
   3  2  0      -38.9684367014    -0.0007326047   0.012898029   0.000000000              0          0
   4  3  0      -38.9686583525    -0.0002216511   0.009011377   0.000000000              0          0
   5  0  0      -38.9687377828    -0.0000794303   0.018951957   0.000000000              0          0
   6  1  0      -38.9687930597    -0.0000552769   0.000513812   0.000000000              0          0
   7  2  0      -38.9687934762    -0.0000004165   0.000363201   0.000000000              0          0
   8  3  0      -38.9687936333    -0.0000001571   0.000258149   0.000000000              0          0
   9  4  0      -38.9687936989    -0.0000000656   0.000183606   0.000000000              0          0
  10  5  0      -38.9687937282    -0.0000000293   0.000130599   0.000000000              0          0
  11  6  0      -38.9687937419    -0.0000000137   0.000092905   0.000000000              0          0

          -----------------
          DENSITY CONVERGED
          -----------------
     TIME TO FORM FOCK OPERATORS=       0.0 SECONDS (       0.0 SEC/ITER)
     FOCK TIME ON FIRST ITERATION=       0.0, LAST ITERATION=       0.0
     TIME TO SOLVE SCF EQUATIONS=       0.1 SECONDS (       0.0 SEC/ITER)

 FINAL R-PM3 ENERGY IS      -38.9687937419 AFTER  11 ITERATIONS

 HEAT OF FORMATION IS       211.15930 KCAL/MOL

 ...... END OF RHF CALCULATION ......
 STEP CPU TIME =     0.07 TOTAL CPU TIME =          0.2 (      0.0 MIN)
 TOTAL WALL CLOCK TIME=          0.3 SECONDS, CPU UTILIZATION IS    92.31%

          NSERCH=  2     ENERGY=     -38.9687937

                                 -----------------------
                                 GRADIENT (HARTREE/BOHR)
                                 -----------------------
        ATOM     ZNUC       DE/DX         DE/DY         DE/DZ
 --------------------------------------------------------------
    1  C            6.0     0.0078192    -0.0044185    -0.0066708
    2  C            6.0     0.0078192    -0.0044185     0.0066708
    3  C            6.0    -0.0031695     0.0002793    -0.0010318
    4  C            6.0    -0.0031695     0.0002793     0.0010318
    5  C            6.0     0.0047052    -0.0020740     0.0000000
    6  H            1.0    -0.0029972    -0.0006122    -0.0021630
    7  H            1.0    -0.0029972    -0.0006122     0.0021630
    8  BR          35.0    -0.0128628     0.0086738     0.0000000
    9  H            1.0     0.0002685    -0.0002035     0.0002929
   10  H            1.0     0.0002685    -0.0002035    -0.0002929
   11  H            1.0     0.0038643     0.0012437     0.0007736
   12  H            1.0     0.0038643     0.0012437    -0.0007736
   13  H            1.0    -0.0028609    -0.0010202     0.0000000
   14  H            1.0    -0.0005520     0.0018427     0.0000000

          MAXIMUM GRADIENT = 0.0128628    RMS GRADIENT = 0.0038278

 NSERCH:   2  E=      -38.9687937419  GRAD. MAX=  0.0128628  R.M.S.=  0.0038278

          HESSIAN UPDATED USING THE BFGS FORMULA
             ACTUAL ENERGY CHANGE WAS  -0.0064764207
          PREDICTED ENERGY CHANGE WAS  -0.0062773886 RATIO=  1.032
          MIN SEARCH, CORRECT HESSIAN, TRYING PURE NR STEP
               NR STEP HAS LENGTH         =   0.577615
          TRIM/QA LAMBDA FOR NON-TS MODES =  -0.00084694
          TRIM/QA STEP HAS LENGTH         =   0.500000
          RADIUS OF STEP TAKEN=   0.50000  CURRENT TRUST RADIUS=   0.50000

 BEGINNING GEOMETRY SEARCH POINT NSERCH=   3 ...

 COORDINATES OF SYMMETRY UNIQUE ATOMS (ANGS)
   ATOM   CHARGE       X              Y              Z
 ------------------------------------------------------------
 C           6.0  -0.9465274316   0.1963976884  -0.7235927633
 C           6.0  -0.4333624932   1.4978100278  -1.2284605339
 C           6.0  -0.3653481366   2.4188175429   0.0000000000
 H           1.0  -1.5374491307  -0.4995045191   1.3611331356
 BR         35.0   0.7547363865  -0.8748687932   0.0000000000
 H           1.0  -1.0959966138   1.9022179568  -2.0240733503
 H           1.0   0.5565872523   1.3697376356  -1.7308234655
 H           1.0  -1.2200282964   3.1375915599   0.0000000000
 H           1.0   0.5641368804   3.0451421115   0.0000000000
 COORDINATES OF ALL ATOMS ARE (ANGS)
   ATOM   CHARGE       X              Y              Z
 ------------------------------------------------------------
 C           6.0  -0.9465274316   0.1963976884   0.7235927633
 C           6.0  -0.9465274316   0.1963976884  -0.7235927633
 C           6.0  -0.4333624932   1.4978100278   1.2284605339
 C           6.0  -0.4333624932   1.4978100278  -1.2284605339
 C           6.0  -0.3653481366   2.4188175429   0.0000000000
 H           1.0  -1.5374491307  -0.4995045191  -1.3611331356
 H           1.0  -1.5374491307  -0.4995045191   1.3611331356
 BR         35.0   0.7547363865  -0.8748687932   0.0000000000
 H           1.0  -1.0959966138   1.9022179568   2.0240733503
 H           1.0  -1.0959966138   1.9022179568  -2.0240733503
 H           1.0   0.5565872523   1.3697376356   1.7308234655
 H           1.0   0.5565872523   1.3697376356  -1.7308234655
 H           1.0  -1.2200282964   3.1375915599   0.0000000000
 H           1.0   0.5641368804   3.0451421115   0.0000000000

          INTERNUCLEAR DISTANCES (ANGS.)
          ------------------------------

                1 C          2 C          3 C          4 C          5 C     

   1 C       0.0000000    1.4471855 *  1.4872471 *  2.4015671 *  2.4084239 *
   2 C       1.4471855 *  0.0000000    2.4015671 *  1.4872471 *  2.4084239 *
   3 C       1.4872471 *  2.4015671 *  0.0000000    2.4569211 *  1.5368787 *
   4 C       2.4015671 *  1.4872471 *  2.4569211 *  0.0000000    1.5368787 *
   5 C       2.4084239 *  2.4084239 *  1.5368787 *  1.5368787 *  0.0000000  
   6 H       2.2758626 *  1.1135197 *  3.4517051    2.2860172 *  3.4268218  
   7 H       1.1135197 *  2.2758626 *  2.2860172 *  3.4517051    3.4268218  
   8 BR      2.1367024 *  2.1367024 *  2.9240894 *  2.9240894 *  3.4789307  
   9 H       2.1502125 *  3.2375659    1.1115887 *  3.3438909    2.2130511 *
  10 H       3.2375659    2.1502125 *  3.3438909    1.1115887 *  2.2130511 *
  11 H       2.1565236 *  3.1080926    1.1174845 *  3.1231018    2.2240241 *
  12 H       3.1080926    2.1565236 *  3.1231018    1.1174845 *  2.2240241 *
  13 H       3.0412186    3.0412186    2.1947305 *  2.1947305 *  1.1167427 *
  14 H       3.3046994    3.3046994    2.2132232 *  2.2132232 *  1.1208144 *

                6 H          7 H          8 BR         9 H         10 H     

   1 C       2.2758626 *  1.1135197 *  2.1367024 *  2.1502125 *  3.2375659  
   2 C       1.1135197 *  2.2758626 *  2.1367024 *  3.2375659    2.1502125 *
   3 C       3.4517051    2.2860172 *  2.9240894 *  1.1115887 *  3.3438909  
   4 C       2.2860172 *  3.4517051    2.9240894 *  3.3438909    1.1115887 *
   5 C       3.4268218    3.4268218    3.4789307    2.2130511 *  2.2130511 *
   6 H       0.0000000    2.7222663 *  2.6921546 *  4.1740597    2.5303440 *
   7 H       2.7222663 *  0.0000000    2.6921546 *  2.5303440 *  4.1740597  
   8 BR      2.6921546 *  2.6921546 *  0.0000000    3.9031137    3.9031137  
   9 H       4.1740597    2.5303440 *  3.9031137    0.0000000    4.0481467  
  10 H       2.5303440 *  4.1740597    3.9031137    4.0481467    0.0000000  
  11 H       4.1760328    2.8312057 *  2.8413502 *  1.7608419 *  4.1368852  
  12 H       2.8312057 *  4.1760328    2.8413502 *  4.1368852    1.7608419 *
  13 H       3.8963967    3.8963967    4.4720838    2.3745325 *  2.3745325 *
  14 H       4.3398003    4.3398003    3.9246419    2.8564299 *  2.8564299 *

               11 H         12 H         13 H         14 H     

   1 C       2.1565236 *  3.1080926    3.0412186    3.3046994  
   2 C       3.1080926    2.1565236 *  3.0412186    3.3046994  
   3 C       1.1174845 *  3.1231018    2.1947305 *  2.2132232 *
   4 C       3.1231018    1.1174845 *  2.1947305 *  2.2132232 *
   5 C       2.2240241 *  2.2240241 *  1.1167427 *  1.1208144 *
   6 H       4.1760328    2.8312057 *  3.8963967    4.3398003  
   7 H       2.8312057 *  4.1760328    3.8963967    4.3398003  
   8 BR      2.8413502 *  2.8413502 *  4.4720838    3.9246419  
   9 H       1.7608419 *  4.1368852    2.3745325 *  2.8564299 *
  10 H       4.1368852    1.7608419 *  2.3745325 *  2.8564299 *
  11 H       0.0000000    3.4616469    3.0458858    2.4088975 *
  12 H       3.4616469    0.0000000    3.0458858    2.4088975 *
  13 H       3.0458858    3.0458858    0.0000000    1.7865588 *
  14 H       2.4088975 *  2.4088975 *  1.7865588 *  0.0000000  

  * ... LESS THAN  3.000


 MOPAC ONE- AND TWO-ELECTRON INTEGRALS REQUIRE      3064 WORDS.
 ...... END OF ONE- AND TWO-ELECTRON INTEGRALS......
 STEP CPU TIME =     0.02 TOTAL CPU TIME =          0.3 (      0.0 MIN)
 TOTAL WALL CLOCK TIME=          0.3 SECONDS, CPU UTILIZATION IS    96.30%
 ...... END OF ONE-ELECTRON INTEGRALS ......
 STEP CPU TIME =     0.00 TOTAL CPU TIME =          0.3 (      0.0 MIN)
 TOTAL WALL CLOCK TIME=          0.3 SECONDS, CPU UTILIZATION IS    96.30%

          --------------------------
               R-PM3 SCF CALCULATION
          --------------------------
     DENSITY MATRIX CONV=  2.00E-05

                                                                                   NONZERO     BLOCKS
 ITER EX DEM     TOTAL ENERGY        E CHANGE  DENSITY CHANGE    DIIS ERROR      INTEGRALS    SKIPPED
   1  0  0      -38.9640492490   -38.9640492490   0.032229657   0.000000000              0          0
   2  1  0      -38.9692395326    -0.0051902835   0.014589673   0.000000000              0          0
   3  2  0      -38.9702900442    -0.0010505117   0.008190481   0.000000000              0          0
   4  3  0      -38.9705444820    -0.0002544378   0.005905869   0.000000000              0          0
   5  0  0      -38.9706158364    -0.0000713544   0.012452230   0.000000000              0          0
   6  1  0      -38.9706532159    -0.0000373795   0.000442632   0.000000000              0          0
   7  2  0      -38.9706534847    -0.0000002688   0.000320645   0.000000000              0          0
   8  3  0      -38.9706535939    -0.0000001091   0.000233303   0.000000000              0          0
   9  4  0      -38.9706536441    -0.0000000502   0.000169844   0.000000000              0          0
  10  5  0      -38.9706536688    -0.0000000247   0.000123612   0.000000000              0          0
  11  6  0      -38.9706536813    -0.0000000125   0.000089923   0.000000000              0          0
  12  7  0      -38.9706536878    -0.0000000065   0.000065388   0.000000000              0          0
  13  8  0      -38.9706536912    -0.0000000034   0.000047529   0.000000000              0          0
  14  9  0      -38.9706536930    -0.0000000018   0.000034538   0.000000000              0          0
  15 10  0      -38.9706536939    -0.0000000009   0.000025091   0.000000000              0          0

          ----------------
          ENERGY CONVERGED
          ----------------
     TIME TO FORM FOCK OPERATORS=       0.0 SECONDS (       0.0 SEC/ITER)
     FOCK TIME ON FIRST ITERATION=       0.0, LAST ITERATION=       0.0
     TIME TO SOLVE SCF EQUATIONS=       0.1 SECONDS (       0.0 SEC/ITER)

 FINAL R-PM3 ENERGY IS      -38.9706536939 AFTER  15 ITERATIONS

 HEAT OF FORMATION IS       209.99213 KCAL/MOL

 ...... END OF RHF CALCULATION ......
 STEP CPU TIME =     0.06 TOTAL CPU TIME =          0.3 (      0.0 MIN)
 TOTAL WALL CLOCK TIME=          0.3 SECONDS, CPU UTILIZATION IS    94.12%

          NSERCH=  3     ENERGY=     -38.9706537

                                 -----------------------
                                 GRADIENT (HARTREE/BOHR)
                                 -----------------------
        ATOM     ZNUC       DE/DX         DE/DY         DE/DZ
 --------------------------------------------------------------
    1  C            6.0     0.0037620     0.0022849    -0.0065852
    2  C            6.0     0.0037620     0.0022849     0.0065852
    3  C            6.0     0.0008392     0.0009090    -0.0007121
    4  C            6.0     0.0008392     0.0009090     0.0007121
    5  C            6.0    -0.0064389    -0.0060159     0.0000000
    6  H            1.0    -0.0039801    -0.0043290    -0.0042384
    7  H            1.0    -0.0039801    -0.0043290     0.0042384
    8  BR          35.0    -0.0032721     0.0024967     0.0000000
    9  H            1.0    -0.0002229    -0.0000756     0.0006404
   10  H            1.0    -0.0002229    -0.0000756    -0.0006404
   11  H            1.0     0.0031631    -0.0009296     0.0014122
   12  H            1.0     0.0031631    -0.0009296    -0.0014122
   13  H            1.0    -0.0055237     0.0030042     0.0000000
   14  H            1.0     0.0081122     0.0047958     0.0000000

          MAXIMUM GRADIENT = 0.0081122    RMS GRADIENT = 0.0033955

 NSERCH:   3  E=      -38.9706536939  GRAD. MAX=  0.0081122  R.M.S.=  0.0033955

          HESSIAN UPDATED USING THE BFGS FORMULA
             ACTUAL ENERGY CHANGE WAS  -0.0018599520
          PREDICTED ENERGY CHANGE WAS  -0.0017516905 RATIO=  1.062
          MIN SEARCH, CORRECT HESSIAN, TRYING PURE NR STEP
               NR STEP HAS LENGTH         =   0.376523
          RADIUS OF STEP TAKEN=   0.37652  CURRENT TRUST RADIUS=   0.50000

 BEGINNING GEOMETRY SEARCH POINT NSERCH=   4 ...

 COORDINATES OF SYMMETRY UNIQUE ATOMS (ANGS)
   ATOM   CHARGE       X              Y              Z
 ------------------------------------------------------------
 C           6.0  -0.9399125239   0.1891030287  -0.7240765918
 C           6.0  -0.4603868909   1.4981780038  -1.2323937311
 C           6.0  -0.3257533694   2.4134105341   0.0000000000
 H           1.0  -1.5239824541  -0.5167780942   1.3414061501
 BR         35.0   0.8157062357  -0.8489993505   0.0000000000
 H           1.0  -1.1539998737   1.9084098202  -1.9997403591
 H           1.0   0.5055148912   1.3718441649  -1.7779570998
 H           1.0  -1.1410939477   3.1855609025   0.0000000000
 H           1.0   0.6166747842   3.0085140670   0.0000000000
 COORDINATES OF ALL ATOMS ARE (ANGS)
   ATOM   CHARGE       X              Y              Z
 ------------------------------------------------------------
 C           6.0  -0.9399125239   0.1891030287   0.7240765918
 C           6.0  -0.9399125239   0.1891030287  -0.7240765918
 C           6.0  -0.4603868909   1.4981780038   1.2323937311
 C           6.0  -0.4603868909   1.4981780038  -1.2323937311
 C           6.0  -0.3257533694   2.4134105341   0.0000000000
 H           1.0  -1.5239824541  -0.5167780942  -1.3414061501
 H           1.0  -1.5239824541  -0.5167780942   1.3414061501
 BR         35.0   0.8157062357  -0.8489993505   0.0000000000
 H           1.0  -1.1539998737   1.9084098202   1.9997403591
 H           1.0  -1.1539998737   1.9084098202  -1.9997403591
 H           1.0   0.5055148912   1.3718441649   1.7779570998
 H           1.0   0.5055148912   1.3718441649  -1.7779570998
 H           1.0  -1.1410939477   3.1855609025   0.0000000000
 H           1.0   0.6166747842   3.0085140670   0.0000000000

          INTERNUCLEAR DISTANCES (ANGS.)
          ------------------------------

                1 C          2 C          3 C          4 C          5 C     

   1 C       0.0000000    1.4481532 *  1.4839166 *  2.4023735 *  2.4184752 *
   2 C       1.4481532 *  0.0000000    2.4023735 *  1.4839166 *  2.4184752 *
   3 C       1.4839166 *  2.4023735 *  0.0000000    2.4647875 *  1.5409643 *
   4 C       2.4023735 *  1.4839166 *  2.4647875 *  0.0000000    1.5409643 *
   5 C       2.4184752 *  2.4184752 *  1.5409643 *  1.5409643 *  0.0000000  
   6 H       2.2595630 *  1.1047632 *  3.4374016    2.2810452 *  3.4381868  
   7 H       1.1047632 *  2.2595630 *  2.2810452 *  3.4374016    3.4381868  
   8 BR      2.1642876 *  2.1642876 *  2.9421845 *  2.9421845 *  3.4563345  
   9 H       2.1515500 *  3.2281617    1.1127488 *  3.3310779    2.2226065 *
  10 H       3.2281617    2.1515500 *  3.3310779    1.1127488 *  2.2226065 *
  11 H       2.1444816 *  3.1222283    1.1164971 *  3.1640383    2.2219358 *
  12 H       3.1222283    2.1444816 *  3.1640383    1.1164971 *  2.2219358 *
  13 H       3.0892589    3.0892589    2.1975936 *  2.1975936 *  1.1229410 *
  14 H       3.3009589    3.3009589    2.2270993 *  2.2270993 *  1.1145937 *

                6 H          7 H          8 BR         9 H         10 H     

   1 C       2.2595630 *  1.1047632 *  2.1642876 *  2.1515500 *  3.2281617  
   2 C       1.1047632 *  2.2595630 *  2.1642876 *  3.2281617    2.1515500 *
   3 C       3.4374016    2.2810452 *  2.9421845 *  1.1127488 *  3.3310779  
   4 C       2.2810452 *  3.4374016    2.9421845 *  3.3310779    1.1127488 *
   5 C       3.4381868    3.4381868    3.4563345    2.2226065 *  2.2226065 *
   6 H       0.0000000    2.6828123 *  2.7173304 *  4.1450794    2.5400448 *
   7 H       2.6828123 *  0.0000000    2.7173304 *  2.5400448 *  4.1450794  
   8 BR      2.7173304 *  2.7173304 *  0.0000000    3.9347184    3.9347184  
   9 H       4.1450794    2.5400448 *  3.9347184    0.0000000    3.9994807  
  10 H       2.5400448 *  4.1450794    3.9347184    3.9994807    0.0000000  
  11 H       4.1732698    2.8064800 *  2.8617296 *  1.7581467 *  4.1608761  
  12 H       2.8064800 *  4.1732698    2.8617296 *  4.1608761    1.7581467 *
  13 H       3.9564237    3.9564237    4.4840543    2.3728133 *  2.3728133 *
  14 H       4.3369884    4.3369884    3.8626446    2.8886813 *  2.8886813 *

               11 H         12 H         13 H         14 H     

   1 C       2.1444816 *  3.1222283    3.0892589    3.3009589  
   2 C       3.1222283    2.1444816 *  3.0892589    3.3009589  
   3 C       1.1164971 *  3.1640383    2.1975936 *  2.2270993 *
   4 C       3.1640383    1.1164971 *  2.1975936 *  2.2270993 *
   5 C       2.2219358 *  2.2219358 *  1.1229410 *  1.1145937 *
   6 H       4.1732698    2.8064800 *  3.9564237    4.3369884  
   7 H       2.8064800 *  4.1732698    3.9564237    4.3369884  
   8 BR      2.8617296 *  2.8617296 *  4.4840543    3.8626446  
   9 H       1.7581467 *  4.1608761    2.3728133 *  2.8886813 *
  10 H       4.1608761    1.7581467 *  2.3728133 *  2.8886813 *
  11 H       0.0000000    3.5559142    3.0268830    2.4191272 *
  12 H       3.5559142    0.0000000    3.0268830    2.4191272 *
  13 H       3.0268830    3.0268830    0.0000000    1.7666625 *
  14 H       2.4191272 *  2.4191272 *  1.7666625 *  0.0000000  

  * ... LESS THAN  3.000


 MOPAC ONE- AND TWO-ELECTRON INTEGRALS REQUIRE      3064 WORDS.
 ...... END OF ONE- AND TWO-ELECTRON INTEGRALS......
 STEP CPU TIME =     0.01 TOTAL CPU TIME =          0.3 (      0.0 MIN)
 TOTAL WALL CLOCK TIME=          0.3 SECONDS, CPU UTILIZATION IS    94.29%
 ...... END OF ONE-ELECTRON INTEGRALS ......
 STEP CPU TIME =     0.00 TOTAL CPU TIME =          0.3 (      0.0 MIN)
 TOTAL WALL CLOCK TIME=          0.3 SECONDS, CPU UTILIZATION IS    94.29%

          --------------------------
               R-PM3 SCF CALCULATION
          --------------------------
     DENSITY MATRIX CONV=  2.00E-05

                                                                                   NONZERO     BLOCKS
 ITER EX DEM     TOTAL ENERGY        E CHANGE  DENSITY CHANGE    DIIS ERROR      INTEGRALS    SKIPPED
   1  0  0      -38.9674299660   -38.9674299660   0.021518836   0.000000000              0          0
   2  1  0      -38.9705651893    -0.0031352233   0.009210815   0.000000000              0          0
   3  2  0      -38.9711548338    -0.0005896445   0.004158532   0.000000000              0          0
   4  3  0      -38.9712793886    -0.0001245548   0.002877631   0.000000000              0          0
   5  0  0      -38.9713088881    -0.0000294996   0.006594391   0.000000000              0          0
   6  1  0      -38.9713217663    -0.0000128782   0.000245650   0.000000000              0          0
   7  2  0      -38.9713218658    -0.0000000995   0.000177673   0.000000000              0          0
   8  3  0      -38.9713219016    -0.0000000358   0.000129529   0.000000000              0          0
   9  4  0      -38.9713219177    -0.0000000161   0.000094645   0.000000000              0          0
  10  5  0      -38.9713219256    -0.0000000079   0.000069193   0.000000000              0          0
  11  6  0      -38.9713219297    -0.0000000041   0.000050585   0.000000000              0          0
  12  7  0      -38.9713219318    -0.0000000021   0.000036976   0.000000000              0          0
  13  8  0      -38.9713219330    -0.0000000011   0.000027025   0.000000000              0          0

          ----------------
          ENERGY CONVERGED
          ----------------
     TIME TO FORM FOCK OPERATORS=       0.0 SECONDS (       0.0 SEC/ITER)
     FOCK TIME ON FIRST ITERATION=       0.0, LAST ITERATION=       0.0
[...]
  12 H       3.2295350    2.1622813 *  3.3188379    1.1101516 *  2.2191858 *
  13 H       3.2413738    3.2413738    2.1946565 *  2.1946565 *  1.1063286 *
  14 H       3.1279681    3.1279681    2.1954989 *  2.1954989 *  1.1071059 *

                6 H          7 H          8 BR         9 H         10 H     

   1 C       2.2638967 *  1.1012674 *  2.1585574 *  2.1212354 *  3.1063360  
   2 C       1.1012674 *  2.2638967 *  2.1585574 *  3.1063360    2.1212354 *
   3 C       3.4361189    2.2706753 *  2.9489722 *  1.1131588 *  3.1612219  
   4 C       2.2706753 *  3.4361189    2.9489722 *  3.1612219    1.1131588 *
   5 C       3.4617468    3.4617468    3.2772440    2.2080598 *  2.2080598 *
   6 H       0.0000000    2.7034229 *  2.6930006 *  4.0193967    2.5565330 *
   7 H       2.7034229 *  0.0000000    2.6930006 *  2.5565330 *  4.0193967  
   8 BR      2.6930006 *  2.6930006 *  0.0000000    3.9667721    3.9667721  
   9 H       4.0193967    2.5565330 *  3.9667721    0.0000000    3.5583367  
  10 H       2.5565330 *  4.0193967    3.9667721    3.5583367    0.0000000  
  11 H       4.2649812    2.7277628 *  3.0418022    1.7557382 *  4.1510610  
  12 H       2.7277628 *  4.2649812    3.0418022    4.1510610    1.7557382 *
  13 H       4.1913123    4.1913123    4.3719681    2.3615910 *  2.3615910 *
  14 H       4.1719955    4.1719955    3.3529603    2.9976746 *  2.9976746 *

               11 H         12 H         13 H         14 H     

   1 C       2.1622813 *  3.2295350    3.2413738    3.1279681  
   2 C       3.2295350    2.1622813 *  3.2413738    3.1279681  
   3 C       1.1101516 *  3.3188379    2.1946565 *  2.1954989 *
   4 C       3.3188379    1.1101516 *  2.1946565 *  2.1954989 *
   5 C       2.2191858 *  2.2191858 *  1.1063286 *  1.1071059 *
   6 H       4.2649812    2.7277628 *  4.1913123    4.1719955  
   7 H       2.7277628 *  4.2649812    4.1913123    4.1719955  
   8 BR      3.0418022    3.0418022    4.3719681    3.3529603  
   9 H       1.7557382 *  4.1510610    2.3615910 *  2.9976746 *
  10 H       4.1510610    1.7557382 *  2.3615910 *  2.9976746 *
  11 H       0.0000000    3.9762090    2.8859081 *  2.3799173 *
  12 H       3.9762090    0.0000000    2.8859081 *  2.3799173 *
  13 H       2.8859081 *  2.8859081 *  0.0000000    1.7598628 *
  14 H       2.3799173 *  2.3799173 *  1.7598628 *  0.0000000  

  * ... LESS THAN  3.000


          NUCLEAR ENERGY    =      112.6598792696
          ELECTRONIC ENERGY =     -151.6330818723
          TOTAL ENERGY      =      -38.9732026027

          ------------------
          MOLECULAR ORBITALS
          ------------------

                      1          2          3          4          5
                   -1.6830    -1.2565    -1.2511    -1.0604    -0.9488
                     A'         A''        A'         A'         A'  
    1  C  1  S   -0.414810   0.301548  -0.415135   0.075108   0.090927
    2  C  1  X   -0.029421   0.024144   0.013124  -0.056217  -0.021170
    3  C  1  Y   -0.079923   0.090346   0.112305   0.035406  -0.213041
    4  C  1  Z    0.074327   0.153254   0.132872  -0.001343  -0.272097
    5  C  2  S   -0.414810  -0.301548  -0.415135   0.075108   0.090927
    6  C  2  X   -0.029421  -0.024144   0.013124  -0.056217  -0.021170
    7  C  2  Y   -0.079923  -0.090346   0.112305   0.035406  -0.213041
    8  C  2  Z   -0.074327   0.153254  -0.132872   0.001343   0.272097
    9  C  3  S   -0.388695   0.487869   0.181122   0.024057  -0.288801
   10  C  3  X    0.004855  -0.016942   0.047217  -0.033272   0.079219
   11  C  3  Y    0.038841  -0.067407   0.159868  -0.045214   0.149040
   12  C  3  Z    0.090035   0.041447  -0.038739   0.005277  -0.186852
   13  C  4  S   -0.388695  -0.487869   0.181122   0.024057  -0.288801
   14  C  4  X    0.004855   0.016942   0.047217  -0.033272   0.079219
   15  C  4  Y    0.038841   0.067407   0.159868  -0.045214   0.149040
   16  C  4  Z   -0.090035   0.041447   0.038739  -0.005277   0.186852
   17  C  5  S   -0.370495  -0.000000   0.487309  -0.093589   0.416139
   18  C  5  X    0.032379   0.000000  -0.000997  -0.019520   0.067119
   19  C  5  Y    0.087837   0.000000   0.016604  -0.025272   0.121378
   20  C  5  Z   -0.000000   0.185926   0.000000  -0.000000   0.000000
   21  H  6  S   -0.129008  -0.140652  -0.183886   0.030701   0.037626
   22  H  7  S   -0.129008   0.140652  -0.183886   0.030701   0.037626
   23  BR 8  S   -0.055645   0.000000  -0.152492  -0.976400  -0.100904
   24  BR 8  X    0.092501  -0.000000   0.145624  -0.029293  -0.123193
   25  BR 8  Y   -0.066303   0.000000  -0.031895   0.010298   0.015087
   26  BR 8  Z    0.000000   0.073557   0.000000  -0.000000  -0.000000
   27  H  9  S   -0.141165   0.211971   0.080293   0.016514  -0.182196
   28  H 10  S   -0.141165  -0.211971   0.080293   0.016514  -0.182196
   29  H 11  S   -0.137006   0.218100   0.081109  -0.007085  -0.167377
   30  H 12  S   -0.137006  -0.218100   0.081109  -0.007085  -0.167377
   31  H 13  S   -0.132740  -0.000000   0.219476  -0.047510   0.223311
   32  H 14  S   -0.135958  -0.000000   0.212575  -0.059006   0.238724

                      6          7          8          9         10
                   -0.9111    -0.8681    -0.8052    -0.7323    -0.7137
                     A''        A'         A'         A'         A'' 
    1  C  1  S   -0.386137  -0.011840   0.016487  -0.053826  -0.034421
    2  C  1  X    0.038765   0.207326  -0.275232   0.080901  -0.197935
    3  C  1  Y    0.112837   0.334128   0.128024  -0.132318  -0.408908
    4  C  1  Z   -0.193035  -0.265599  -0.079787  -0.431477   0.008487
    5  C  2  S    0.386137  -0.011840   0.016487  -0.053826   0.034421
    6  C  2  X   -0.038765   0.207326  -0.275232   0.080901   0.197935
    7  C  2  Y   -0.112837   0.334128   0.128024  -0.132318   0.408908
    8  C  2  Z   -0.193035   0.265599   0.079787   0.431477   0.008487
    9  C  3  S    0.232020   0.014148  -0.014540   0.079728  -0.056734
   10  C  3  X    0.068185   0.041800  -0.360639  -0.016111  -0.008902
   11  C  3  Y    0.238471  -0.132763   0.097177   0.232843   0.380269
   12  C  3  Z    0.038362  -0.260685  -0.140528   0.259389   0.164643
   13  C  4  S   -0.232020   0.014148  -0.014540   0.079728   0.056734
   14  C  4  X   -0.068185   0.041800  -0.360639  -0.016111   0.008902
   15  C  4  Y   -0.238471  -0.132763   0.097177   0.232843  -0.380269
   16  C  4  Z    0.038362   0.260685   0.140528  -0.259389   0.164643
   17  C  5  S   -0.000000  -0.042694   0.028752  -0.150154   0.000000
   18  C  5  X    0.000000  -0.032874  -0.364396  -0.130443   0.000000
   19  C  5  Y    0.000000  -0.258509   0.038400   0.109966  -0.000000
   20  C  5  Z    0.269251   0.000000   0.000000  -0.000000   0.132821
   21  H  6  S    0.311599  -0.315460   0.005132  -0.187286  -0.284621
   22  H  7  S   -0.311599  -0.315460   0.005132  -0.187286   0.284621
   23  BR 8  S   -0.000000   0.009241   0.068206  -0.020886   0.000000
   24  BR 8  X   -0.000000  -0.004457   0.207439  -0.170406   0.000000
   25  BR 8  Y    0.000000   0.121251  -0.180974   0.043548   0.000000
   26  BR 8  Z   -0.133583  -0.000000  -0.000000  -0.000000  -0.006405
   27  H  9  S    0.136219  -0.141833   0.168140   0.211701   0.156835
   28  H 10  S   -0.136219  -0.141833   0.168140   0.211701  -0.156835
   29  H 11  S    0.147508  -0.092847  -0.257507   0.161331   0.053870
   30  H 12  S   -0.147508  -0.092847  -0.257507   0.161331  -0.053870
   31  H 13  S    0.000000  -0.159977   0.161888   0.050863  -0.000000
   32  H 14  S    0.000000  -0.087682  -0.229280  -0.141673   0.000000

                     11         12         13         14         15
                   -0.7062    -0.6785    -0.6740    -0.6685    -0.6147
                     A''        A'         A'         A''        A'' 
    1  C  1  S   -0.016100   0.059128   0.071360  -0.098184   0.032616
    2  C  1  X   -0.159944   0.242471  -0.275800   0.018950  -0.136020
    3  C  1  Y    0.142459   0.153093   0.199717  -0.014807   0.019710
    4  C  1  Z    0.014960   0.105452  -0.209445   0.012420   0.058300
    5  C  2  S    0.016100   0.059128   0.071360   0.098184  -0.032616
    6  C  2  X    0.159944   0.242471  -0.275800  -0.018950   0.136020
    7  C  2  Y   -0.142459   0.153093   0.199717   0.014807  -0.019710
    8  C  2  Z    0.014960  -0.105452   0.209445   0.012420   0.058300
    9  C  3  S    0.015634  -0.098243  -0.048242  -0.044733   0.014113
   10  C  3  X   -0.477437  -0.156691  -0.006434   0.018677   0.190251
   11  C  3  Y    0.007698  -0.227352  -0.116438  -0.172004  -0.070725
   12  C  3  Z    0.013453   0.126638   0.168228   0.478547  -0.022582
   13  C  4  S   -0.015634  -0.098243  -0.048242   0.044733  -0.014113
   14  C  4  X    0.477437  -0.156691  -0.006434  -0.018677  -0.190251
   15  C  4  Y   -0.007698  -0.227352  -0.116438   0.172004   0.070725
   16  C  4  Z    0.013453  -0.126638  -0.168228   0.478547  -0.022582
   17  C  5  S    0.000000   0.000139  -0.050242   0.000000   0.000000
   18  C  5  X    0.000000  -0.069854   0.435968  -0.000000   0.000000
   19  C  5  Y   -0.000000   0.563885   0.209346  -0.000000  -0.000000
   20  C  5  Z   -0.144886  -0.000000  -0.000000  -0.544371   0.044585
   21  H  6  S    0.025597  -0.099893  -0.072160   0.054874  -0.098342
   22  H  7  S   -0.025597  -0.099893  -0.072160  -0.054874   0.098342
   23  BR 8  S    0.000000  -0.013796   0.021146  -0.000000   0.000000
   24  BR 8  X    0.000000  -0.184655   0.433560  -0.000000  -0.000000
   25  BR 8  Y    0.000000   0.187667  -0.060334  -0.000000  -0.000000
   26  BR 8  Z   -0.332999  -0.000000  -0.000000  -0.017655  -0.881559
   27  H  9  S    0.301412   0.028709   0.012357   0.103742  -0.156548
   28  H 10  S   -0.301412   0.028709   0.012357  -0.103742   0.156548
   29  H 11  S   -0.260317  -0.072686   0.072640   0.258042   0.104857
   30  H 12  S    0.260317  -0.072686   0.072640  -0.258042  -0.104857
   31  H 13  S    0.000000   0.417086  -0.052327  -0.000000  -0.000000
   32  H 14  S    0.000000   0.062948   0.359487  -0.000000   0.000000

                     16         17         18         19         20
                   -0.6138    -0.5891    -0.2783    -0.2428    -0.1310
                     A'         A'         A'         A''        A'' 
    1  C  1  S    0.001074   0.041295   0.099171  -0.160772  -0.458216
    2  C  1  X   -0.039761  -0.096429   0.432096  -0.575164   0.192533
    3  C  1  Y   -0.072877   0.047508  -0.183474   0.241170  -0.035664
    4  C  1  Z    0.010047  -0.049612  -0.004164   0.035496   0.346770
    5  C  2  S    0.001074   0.041295   0.099171   0.160772   0.458216
    6  C  2  X   -0.039761  -0.096429   0.432096   0.575164  -0.192533
    7  C  2  Y   -0.072877   0.047508  -0.183474  -0.241170   0.035664
    8  C  2  Z   -0.010047   0.049612   0.004164   0.035496   0.346770
    9  C  3  S   -0.017896   0.004970  -0.002063   0.029016   0.115762
   10  C  3  X    0.018200   0.312768  -0.052884   0.032420  -0.014357
   11  C  3  Y    0.065609  -0.095569   0.019011  -0.068137  -0.151844
   12  C  3  Z   -0.011414   0.012566  -0.004082  -0.029050  -0.043468
   13  C  4  S   -0.017896   0.004970  -0.002063  -0.029016  -0.115762
   14  C  4  X    0.018200   0.312768  -0.052884  -0.032420   0.014357
   15  C  4  Y    0.065609  -0.095569   0.019011   0.068137   0.151844
   16  C  4  Z    0.011414  -0.012566   0.004082  -0.029050  -0.043468
   17  C  5  S   -0.002462  -0.000141   0.001593   0.000000   0.000000
   18  C  5  X   -0.121452  -0.405304   0.020030  -0.000000  -0.000000
   19  C  5  Y   -0.025693   0.168784  -0.009792  -0.000000  -0.000000
   20  C  5  Z    0.000000  -0.000000   0.000000   0.006353   0.032041
   21  H  6  S    0.057733   0.017145   0.004685  -0.093993  -0.282605
   22  H  7  S    0.057733   0.017145   0.004685   0.093993   0.282605
   23  BR 8  S   -0.001313  -0.004246  -0.064517  -0.000000   0.000000
   24  BR 8  X    0.422509   0.265486   0.640550   0.000000  -0.000000
   25  BR 8  Y    0.874577  -0.232420  -0.294149  -0.000000   0.000000
   26  BR 8  Z   -0.000000  -0.000000  -0.000000   0.295786   0.014054
   27  H  9  S   -0.002484  -0.254802   0.090998  -0.124870  -0.002343
   28  H 10  S   -0.002484  -0.254802   0.090998   0.124870   0.002343
   29  H 11  S    0.008424   0.227482  -0.083276   0.091344  -0.111405
   30  H 12  S    0.008424   0.227482  -0.083276  -0.091344   0.111405
   31  H 13  S    0.031362   0.313480  -0.023999  -0.000000  -0.000000
   32  H 14  S   -0.096011  -0.323722   0.025650   0.000000  -0.000000

                     21         22         23         24         25
                   -0.0937    -0.0842    -0.0838    -0.0611    -0.0500
                     A'         A'         A''        A'         A'' 
    1  C  1  S    0.335165   0.018989  -0.087126  -0.068409  -0.010511
    2  C  1  X   -0.049221  -0.170205  -0.004100   0.033732   0.168248
    3  C  1  Y    0.078788  -0.407128  -0.163128   0.033422   0.380282
    4  C  1  Z    0.270919   0.030647  -0.464707  -0.075658  -0.152722
    5  C  2  S    0.335165   0.018989   0.087126  -0.068409   0.010511
    6  C  2  X   -0.049221  -0.170205   0.004100   0.033732  -0.168248
    7  C  2  Y    0.078788  -0.407128   0.163128   0.033422  -0.380282
    8  C  2  Z   -0.270919  -0.030647  -0.464707   0.075658  -0.152722
    9  C  3  S   -0.215931   0.168718   0.248000  -0.329506  -0.288887
   10  C  3  X    0.031441  -0.094697  -0.001251  -0.121642   0.058788
   11  C  3  Y    0.278932  -0.333828  -0.136488  -0.281395   0.103063
   12  C  3  Z    0.110794   0.017676  -0.220745   0.164017  -0.065660
   13  C  4  S   -0.215931   0.168718  -0.248000  -0.329506   0.288887
   14  C  4  X    0.031441  -0.094697   0.001251  -0.121642  -0.058788
   15  C  4  Y    0.278932  -0.333828   0.136488  -0.281395  -0.103063
   16  C  4  Z   -0.110794  -0.017676  -0.220745  -0.164017  -0.065660
   17  C  5  S    0.135879   0.082122  -0.000000   0.432133   0.000000
   18  C  5  X   -0.050189  -0.030599   0.000000  -0.142090   0.000000
   19  C  5  Y   -0.077325  -0.088821   0.000000  -0.356080  -0.000000
   20  C  5  Z    0.000000  -0.000000  -0.382749   0.000000   0.049829
   21  H  6  S   -0.374780  -0.368374  -0.217779   0.099530  -0.342518
   22  H  7  S   -0.374780  -0.368374   0.217779   0.099530   0.342518
   23  BR 8  S   -0.001619   0.006914  -0.000000  -0.002296   0.000000
   24  BR 8  X    0.013276   0.012645  -0.000000  -0.003499  -0.000000
   25  BR 8  Y   -0.016642   0.013550  -0.000000  -0.003140   0.000000
   26  BR 8  Z   -0.000000  -0.000000  -0.007945   0.000000  -0.008525
   27  H  9  S    0.010190  -0.075773   0.000059   0.160579   0.221205
   28  H 10  S    0.010190  -0.075773  -0.000059   0.160579  -0.221205
   29  H 11  S    0.078843  -0.069297  -0.016075   0.215553   0.185124
   30  H 12  S    0.078843  -0.069297   0.016075   0.215553  -0.185124
   31  H 13  S   -0.109945   0.033199  -0.000000  -0.085792   0.000000
   32  H 14  S   -0.053128   0.005561  -0.000000  -0.101745  -0.000000

                     26         27
                   -0.0479    -0.0346
                     A'         A'' 
    1  C  1  S   -0.020214   0.020666
    2  C  1  X    0.051555  -0.107585
    3  C  1  Y   -0.021349  -0.010758
    4  C  1  Z   -0.014722  -0.035307
    5  C  2  S   -0.020214  -0.020666
    6  C  2  X    0.051555   0.107585
    7  C  2  Y   -0.021349   0.010758
    8  C  2  Z    0.014722  -0.035307
    9  C  3  S    0.038152  -0.024771
   10  C  3  X   -0.383565   0.433603
   11  C  3  Y    0.093311  -0.178161
   12  C  3  Z   -0.040506   0.070648
   13  C  4  S    0.038152   0.024771
   14  C  4  X   -0.383565  -0.433603
   15  C  4  Y    0.093311   0.178161
   16  C  4  Z    0.040506   0.070648
   17  C  5  S   -0.042923  -0.000000
   18  C  5  X   -0.280026   0.000000
   19  C  5  Y    0.109698   0.000000
   20  C  5  Z    0.000000   0.080594
   21  H  6  S    0.028897   0.040600
   22  H  7  S    0.028897  -0.040600
   23  BR 8  S   -0.007032   0.000000
   24  BR 8  X    0.015379  -0.000000
   25  BR 8  Y   -0.006781  -0.000000
   26  BR 8  Z    0.000000   0.022033
   27  H  9  S   -0.350140   0.373423
   28  H 10  S   -0.350140  -0.373423
   29  H 11  S    0.293995  -0.341607
   30  H 12  S    0.293995   0.341607
   31  H 13  S   -0.244384   0.000000
   32  H 14  S    0.320301  -0.000000

     ----------------------------------------------------------------
     PROPERTY VALUES FOR THE RHF   SELF-CONSISTENT FIELD WAVEFUNCTION
     ----------------------------------------------------------------

                    -------------
                    MOPAC CHARGES
                    -------------
         ATOM NO.   TYPE          CHARGE        ATOM  ELECTRON DENSITY
           1         C              0.0820          3.9180
           2         C              0.0820          3.9180
           3         C             -0.1491          4.1491
           4         C             -0.1491          4.1491
           5         C             -0.1078          4.1078
           6         H              0.1651          0.8349
           7         H              0.1651          0.8349
           8         BR             0.1816          6.8184
           9         H              0.1337          0.8663
          10         H              0.1337          0.8663
          11         H              0.1313          0.8687
          12         H              0.1313          0.8687
          13         H              0.1035          0.8965
          14         H              0.0966          0.9034

          ---------------------
          ELECTROSTATIC MOMENTS
          ---------------------

 POINT   1           X           Y           Z (ANGS)      CHARGE
                 0.219431    0.162507    0.000000        1.00 (A.U.)
         DX          DY          DZ         /D/  (DEBYE)
    -3.601255    1.291260    0.000000    3.825753
 ...... END OF PROPERTY EVALUATION ......
 STEP CPU TIME =     0.01 TOTAL CPU TIME =          1.0 (      0.0 MIN)
 TOTAL WALL CLOCK TIME=          1.0 SECONDS, CPU UTILIZATION IS    98.02%
  $VIB   
          IVIB=   0 IATOM=   0 ICOORD=   0 E=      -38.9732026027
  1.187747474E-05 1.570912848E-04 8.109170084E-05 1.187745194E-05 1.570912903E-04
 -8.109171258E-05 2.507874080E-04-2.812795916E-05 2.923658344E-04 2.507874035E-04
 -2.812795087E-05-2.923658341E-04 1.098818853E-04 4.152158391E-05 0.000000000E+00
 -6.035452094E-06 6.126170620E-06 2.458221956E-05-6.035456326E-06 6.126166648E-06
 -2.458221334E-05 6.695629196E-06-1.516523663E-04 0.000000000E+00 1.192585818E-05
 -5.497033533E-05-1.806746966E-04 1.192585343E-05-5.497033568E-05 1.806746989E-04
 -2.809404546E-04-2.315688083E-06-1.448197327E-04-2.809404528E-04-2.315688515E-06
  1.448197311E-04-5.278813673E-05-1.643725000E-04 0.000000000E+00-3.901901167E-05
  1.188963277E-04 0.000000000E+00
 -3.601254904E+00 1.291260105E+00 5.506107988E-16
 ......END OF GEOMETRY SEARCH......
 STEP CPU TIME =     0.00 TOTAL CPU TIME =          1.0 (      0.0 MIN)
 TOTAL WALL CLOCK TIME=          1.0 SECONDS, CPU UTILIZATION IS    97.06%
               580000  WORDS OF DYNAMIC MEMORY USED
 EXECUTION OF GAMESS TERMINATED NORMALLY Sat Nov 13 19:25:19 2021
 DDI: 263640 bytes (0.3 MB / 0 MWords) used by master data server.

 ----------------------------------------
 CPU timing information for all processes
 ========================================
 0: 0.363 + 0.637 = 1.01
 ----------------------------------------
 ddikick.x: exited gracefully.
----- accounting info -----
Files used on the master node chemcompute-node-0.novalocal were:
-rw-r--r--. 1 chemcomp chemcomp      802 Nov 13 19:25 /scratch/306117/342019.F05
-rw-rw-r--. 1 chemcomp chemcomp 45875200 Nov 13 19:25 /scratch/306117/342019.F10
Sat Nov 13 19:25:23 UTC 2021
0.119u 0.080s 0:04.57 4.1%	0+0k 8+216io 0pf+0w
Finishing Up...
Looking for IR data...
Looking for Raman data...
vibramans not found
Looking for thermodynamics data...
Looking for UV-Vis data...
306117
