----- GAMESS execution script 'rungms' -----
This job is running on host chemcompute-node-0.novalocal
under operating system Linux at Sat Nov 13 20:30:04 UTC 2021
SLURM has assigned the following compute nodes to this run:
chemcompute-node-0
Available scratch disk space (Kbyte units) at beginning of the job is
Filesystem     1K-blocks     Used Available Use% Mounted on
/dev/sda1       62903276 16820352  46082924  27% /
GAMESS temporary binary files will be written to /scratch/306153
GAMESS supplementary output files will be written to /data/slurm/342055
Copying input file 342055.inp to your run's scratch directory...
The generated host list is
chemcompute-node-0.novalocal

 Distributed Data Interface kickoff program.
 Initiating 1 compute processes on 1 nodes to run the following command:
 /data/gamess-2019R1-ddi/gamess.00.x 342055 

          ******************************************************
          *         GAMESS VERSION = 30 JUN 2019 (R1)          *
          *             FROM IOWA STATE UNIVERSITY             *
          * M.W.SCHMIDT, K.K.BALDRIDGE, J.A.BOATZ, S.T.ELBERT, *
          *   M.S.GORDON, J.H.JENSEN, S.KOSEKI, N.MATSUNAGA,   *
          *          K.A.NGUYEN, S.J.SU, T.L.WINDUS,           *
          *       TOGETHER WITH M.DUPUIS, J.A.MONTGOMERY       *
          *         J.COMPUT.CHEM.  14, 1347-1363(1993)        *
          **************** 64 BIT LINUX VERSION ****************

  SINCE 1993, STUDENTS AND POSTDOCS WORKING AT IOWA STATE UNIVERSITY
  AND ALSO IN THEIR VARIOUS JOBS AFTER LEAVING ISU HAVE MADE IMPORTANT
  CONTRIBUTIONS TO THE CODE:
     IVANA ADAMOVIC, CHRISTINE AIKENS, YURI ALEXEEV, POOJA ARORA,
     ANDREY ASADCHEV, ROB BELL, PRADIPTA BANDYOPADHYAY, JONATHAN BENTZ,
     COLLEEN BERTONI, BRETT BODE, KURT BRORSEN, CALEB CARLIN, GALINA CHABAN,
     WEI CHEN, CHEOL HO CHOI, PAUL DAY, ALBERT DEFUSCO, NUWAN DESILVA,
     TIM DUDLEY, DMITRI FEDOROV, ALEX FINDLATER, GRAHAM FLETCHER, 
     MARK FREITAG, KURT GLAESEMANN, ANASTASIA GUNINA,
     DAN KEMP, GRANT MERRILL, NORIYUKI MINEZAWA, JONATHAN MULLIN,
     TAKESHI NAGATA, SEAN NEDD, HEATHER NETZLOFF, BOSILJKA NJEGIC, RYAN OLSON,
     MIKE PAK, BUU PHAM,
     SPENCER PRUITT, LUKE ROSKOP, JIM SHOEMAKER, LYUDMILA SLIPCHENKO,
     TONY SMITH, SAROM SOK LEANG, JIE SONG, TETSUYA TAKETSUGU, SIMON WEBB,
     PENG XU, SOOHAENG YOO, FEDERICO ZAHARIEV

  ADDITIONAL CODE HAS BEEN PROVIDED BY COLLABORATORS IN OTHER GROUPS:
     IOWA STATE UNIVERSITY:
          JOE IVANIC, AARON WEST, LAIMUTIS BYTAUTAS, KLAUS RUEDENBERG
     UNIVERSITY OF TOKYO: KIMIHIKO HIRAO, TAKAHITO NAKAJIMA,
          TAKAO TSUNEDA, MUNEAKI KAMIYA, SUSUMU YANAGISAWA,
          KIYOSHI YAGI, MAHITO CHIBA, SEIKEN TOKURA, NAOAKI KAWAKAMI
     UNIVERSITY OF AARHUS: FRANK JENSEN
     UNIVERSITY OF IOWA: VISVALDAS KAIRYS, HUI LI
     NATIONAL INST. OF STANDARDS AND TECHNOLOGY: WALT STEVENS, DAVID GARMER
     UNIVERSITY OF PISA: BENEDETTA MENNUCCI, JACOPO TOMASI
     UNIVERSITY OF MEMPHIS: HENRY KURTZ, PRAKASHAN KORAMBATH
     UNIVERSITY OF ALBERTA: TOBY ZENG, MARIUSZ KLOBUKOWSKI
     UNIVERSITY OF NEW ENGLAND: MARK SPACKMAN
     MIE UNIVERSITY: HIROAKI UMEDA
     NAT. INST. OF ADVANCED INDUSTRIAL SCIENCE AND TECHNOLOGY: KAZUO KITAURA
     MICHIGAN STATE UNIVERSITY:
          KAROL KOWALSKI, MARTA WLOCH, JEFFREY GOUR, JESSE LUTZ,
          WEI LI, JUN SHEN, J. EMILIANO DEUSTUA, PIOTR PIECUCH
     UNIVERSITY OF MINNESOTA:
          YINAN SHU
     UNIVERSITY OF SILESIA: MONIKA MUSIAL, STANISLAW KUCHARSKI
     FACULTES UNIVERSITAIRES NOTRE-DAME DE LA PAIX:
          OLIVIER QUINET, BENOIT CHAMPAGNE
     UNIVERSITY OF CALIFORNIA - SANTA BARBARA: BERNARD KIRTMAN
     INSTITUTE FOR MOLECULAR SCIENCE:
          KAZUYA ISHIMURA, MICHIO KATOUDA, AND SHIGERU NAGASE
     UNIVERSITY OF NOTRE DAME: ANNA POMOGAEVA, DAN CHIPMAN
     KYUSHU UNIVERSITY:
          HARUYUKI NAKANO,
          FENG LONG GU, JACEK KORCHOWIEC, MARCIN MAKOWSKI, AND YURIKO AOKI,
          HIROTOSHI MORI AND EISAKU MIYOSHI
     PENNSYLVANIA STATE UNIVERSITY:
          TZVETELIN IORDANOV, CHET SWALINA, JONATHAN SKONE,
          SHARON HAMMES-SCHIFFER
     WASEDA UNIVERSITY:
          MASATO KOBAYASHI, TOMOKO AKAMA, TSUGUKI TOUMA,
          TAKESHI YOSHIKAWA, YASUHIRO IKABATA, JUNJI SEINO,
          YUYA NAKAJIMA, HIROMI NAKAI
     NANJING UNIVERSITY: SHUHUA LI
     UNIVERSITY OF NEBRASKA:
          PEIFENG SU, DEJUN SI, NANDUN THELLAMUREGE, YALI WANG, HUI LI
     UNIVERSITY OF ZURICH: ROBERTO PEVERATI, KIM BALDRIDGE
     N. COPERNICUS UNIVERSITY AND JACKSON STATE UNIVERSITY:
          MARIA BARYSZ
     UNIVERSITY OF COPENHAGEN: Jimmy Kromann, CASPER STEINMANN
     TOKYO INSTITUTE OF TECHNOLOGY: HIROYA NAKATA
     NAGOYA UNIVERSITY: YOSHIO NISHIMOTO, STEPHAN IRLE
     MOSCOW STATE UNIVERSITY: VLADIMIR MIRONOV
     A.N.NESMEYANOV INSTITUTE OF ORGANOELEMENT COMPOUNDS OF RUSSIAN ACADEMY OF SCIENCES:
          IGOR S. GERASIMOV

 EXECUTION OF GAMESS BEGUN Sat Nov 13 20:30:05 2021

            ECHO OF THE FIRST FEW INPUT CARDS -
 INPUT CARD>!File created by the GAMESS Input Deck Generator Plugin for Avogadro            
 INPUT CARD> $BASIS GBASIS=STO NGAUSS=3 $END                                                
 INPUT CARD> $CONTRL SCFTYP=RHF RUNTYP=OPTIMIZE NZVAR=1 mult=1  ICHARG=0 $END               
 INPUT CARD> $STATPT hssend=.t. OPTTOL=0.0005 NSTEP=50 $END                                 
 INPUT CARD> $STATPT HESS=calc ihrep=5 $END                                                 
 INPUT CARD> $FORCE nvib=2 $END                                                             
 INPUT CARD> $ZMAT DLC=.t. auto=.t. nonvdw(1)=1,6,3,4 $END                                  
 INPUT CARD> $ZMAT IFZMAT(1)=1,1,6,1,3,4 fvalue(1)=2.00,2.00 $END                           
 INPUT CARD>                                                                                
 INPUT CARD> $DATA                                                                          
 INPUT CARD>Title                                                                           
 INPUT CARD>C1                                                                              
 INPUT CARD>C     6.0     3.76425    -1.60085    -3.01458                                   
 INPUT CARD>C     6.0     2.93256    -1.44332    -1.91953                                   
 INPUT CARD>C     6.0     2.92687    -0.08053    -1.41342                                   
 INPUT CARD>C     6.0     4.77405    -0.15038    -0.65388                                   
 INPUT CARD>C     6.0     5.53768    -1.20829    -1.39666                                   
 INPUT CARD>C     6.0     5.64223    -0.96469    -2.72864                                   
 INPUT CARD>C     6.0     6.35891     0.48653    -2.84762                                   
 INPUT CARD>C     6.0     6.03258     1.53786    -2.06919                                   
 INPUT CARD>C     6.0     5.11560     1.27821    -0.94825                                   
 INPUT CARD>O     8.0     4.60028     2.20894    -0.33548                                   
 INPUT CARD>H     1.0     3.32004    -2.56363    -3.35240                                   
 INPUT CARD>H     1.0     3.56997    -0.83752    -3.78912                                   
 INPUT CARD>H     1.0     2.59444    -2.21327    -1.20993                                   
 INPUT CARD>H     1.0     2.94162     0.62629    -2.24606                                   
 INPUT CARD>H     1.0     2.32157     0.21175    -0.56230                                   
 INPUT CARD>H     1.0     4.61728    -0.41704     0.38010                                   
 INPUT CARD>H     1.0     5.37200    -2.26622    -1.17428                                   
 INPUT CARD>H     1.0     6.49271    -1.61048    -3.10234                                   
 INPUT CARD>H     1.0     7.26672     0.63597    -3.46570                                   
 INPUT CARD>H     1.0     6.40693     2.55531    -2.15690                                   
 INPUT CARD> $END                                                                           
    1000000 WORDS OF MEMORY AVAILABLE

     BASIS OPTIONS
     -------------
     GBASIS=STO          IGAUSS=       3      POLAR=NONE    
     NDFUNC=       0     NFFUNC=       0     DIFFSP=       F
     NPFUNC=       0      DIFFS=       F     BASNAM=        


     RUN TITLE
     ---------
 Title                                                                           

 THE POINT GROUP OF THE MOLECULE IS C1      
 THE ORDER OF THE PRINCIPAL AXIS IS     0

 ATOM      ATOMIC                      COORDINATES (BOHR)
           CHARGE         X                   Y                   Z
 C           6.0     7.1134010493       -3.0251678474       -5.6967301681
 C           6.0     5.5417348426       -2.7274793126       -3.6273857252
 C           6.0     5.5309823017       -0.1521796338       -2.6709765056
 C           6.0     9.0216463517       -0.2841769940       -1.2356540289
 C           6.0    10.4646978077       -2.2833370137       -2.6393046980
 C           6.0    10.6622686597       -1.8229997631       -5.1563819191
 C           6.0    12.0165974806        0.9194083848       -5.3812215172
 C           6.0    11.3999231990        2.9061340075       -3.9102021165
 C           6.0     9.6670822628        2.4154666548       -1.7919326679
 O           8.0     8.6932686668        4.1742913233       -0.6339652744
 H           1.0     6.2739658683       -4.8445582339       -6.3351174012
 H           1.0     6.7462650844       -1.5826833092       -7.1603985346
 H           1.0     4.9027806916       -4.1824738368       -2.2864361643
 H           1.0     5.5588557600        1.1835164889       -4.2444379520
 H           1.0     4.3871311613        0.4001494779       -1.0625929229
 H           1.0     8.7253940086       -0.7880913259        0.7182848479
 H           1.0    10.1516080060       -4.2825348279       -2.2190674329
 H           1.0    12.2694428177       -3.0433659087       -5.8625725207
 H           1.0    13.7321096295        1.2018090364       -6.5492233556
 H           1.0    12.1073421225        4.8288357137       -4.0759499829

          INTERNUCLEAR DISTANCES (ANGS.)
          ------------------------------

                1 C          2 C          3 C          4 C          5 C     

   1 C       0.0000000    1.3840731 *  2.3614173 *  2.9489767 *  2.4324519 *
   2 C       1.3840731 *  0.0000000    1.4537456 *  2.5815982 *  2.6674487 *
   3 C       2.3614173 *  1.4537456 *  0.0000000    1.9984629 *  2.8440205 *
   4 C       2.9489767 *  2.5815982 *  1.9984629 *  0.0000000    1.5013416 *
   5 C       2.4324519 *  2.6674487 *  2.8440205 *  1.5013416 *  0.0000000  
   6 C       2.0033148 *  2.8681104 *  3.1439979    2.3919587 *  1.3581025 *
   7 C       3.3342603    4.0404884    3.7626301    2.7802753 *  2.3774184 *
   8 C       3.9862995    4.3034819    3.5629559    2.5371548 *  2.8702896 *
   9 C       3.7927369    3.6215707    2.6178420 *  1.4980586 *  2.5616216 *
  10 O       4.7319153    4.3161913    3.0337977    2.3870411 *  3.6989570  
  11 H       1.1128298 *  1.8596644 *  3.1749034    3.9012730    3.2526593  
  12 H       1.1046853 *  2.0660716 *  2.5749878 *  3.4280752    3.1198106  
  13 H       2.2361295 *  1.1003092 *  2.1680631 *  3.0521151    3.1156885  
  14 H       2.4954951 *  2.0952302 *  1.0922918 *  2.5487356 *  3.2903938  
  15 H       3.3735029    2.2259018 *  1.0845372 *  2.4807626 *  3.6133134  
  16 H       3.6949856    3.0298235    2.4874563 *  1.0792586 *  2.1517641 *
  17 H       2.5326432 *  2.6801921 *  3.2883262    2.2594555 *  1.0936721 *
  18 H       2.7298880 *  3.7552164    4.2318333    3.3287596    1.9957914 *
  19 H       4.1802116    5.0496566    4.8538154    3.8390209    3.2667722  
  20 H       4.9993038    5.3025120    4.4284571    3.4994463    3.9367811  

                6 C          7 C          8 C          9 C         10 O     

   1 C       2.0033148 *  3.3342603    3.9862995    3.7927369    4.7319153  
   2 C       2.8681104 *  4.0404884    4.3034819    3.6215707    4.3161913  
   3 C       3.1439979    3.7626301    3.5629559    2.6178420 *  3.0337977  
   4 C       2.3919587 *  2.7802753 *  2.5371548 *  1.4980586 *  2.3870411 *
   5 C       1.3581025 *  2.3774184 *  2.8702896 *  2.5616216 *  3.6989570  
   6 C       0.0000000    1.6229066 *  2.6172512 *  2.9116538 *  4.1091121  
   7 C       1.6229066 *  0.0000000    1.3482356 *  2.4042012 *  3.5171470  
   8 C       2.6172512 *  1.3482356 *  0.0000000    1.4713181 *  2.3468238 *
   9 C       2.9116538 *  2.4042012 *  1.4713181 *  0.0000000    1.2277215 *
  10 O       4.1091121    3.5171470    2.3468238 *  1.2277215 *  0.0000000  
  11 H       2.8876032 *  4.3350905    5.0819997    4.8748033    5.7894944  
  12 H       2.3313197 *  3.2276488    3.8294957    3.8646899    4.7191192  
  13 H       3.6269072    4.9134695    5.1604371    4.3145286    4.9339637  
  14 H       3.1713397    3.4726472    3.2274257    2.6144788 *  2.9843341 *
  15 H       4.1356768    4.6473977    4.2191090    3.0154432    3.0385415  
  16 H       3.3188413    3.7772861    3.4385651    2.2105902 *  2.7217852 *
  17 H       2.0452481 *  3.3692270    3.9633640    3.5608727    4.6180293  
  18 H       1.1313764 *  2.1166567 *  3.3453196    3.8575984    5.0818082  
  19 H       2.3967348 *  1.1083656 *  2.0704462 *  3.3730319    4.4025463  
  20 H       3.6471979    2.1815707 *  1.0876743 *  2.1815940 *  2.5887308 *

               11 H         12 H         13 H         14 H         15 H     

   1 C       1.1128298 *  1.1046853 *  2.2361295 *  2.4954951 *  3.3735029  
   2 C       1.8596644 *  2.0660716 *  1.1003092 *  2.0952302 *  2.2259018 *
   3 C       3.1749034    2.5749878 *  2.1680631 *  1.0922918 *  1.0845372 *
   4 C       3.9012730    3.4280752    3.0521151    2.5487356 *  2.4807626 *
   5 C       3.2526593    3.1198106    3.1156885    3.2903938    3.6133134  
   6 C       2.8876032 *  2.3313197 *  3.6269072    3.1713397    4.1356768  
   7 C       4.3350905    3.2276488    4.9134695    3.4726472    4.6473977  
   8 C       5.0819997    3.8294957    5.1604371    3.2274257    4.2191090  
   9 C       4.8748033    3.8646899    4.3145286    2.6144788 *  3.0154432  
  10 O       5.7894944    4.7191192    4.9339637    2.9843341 *  3.0385415  
  11 H       0.0000000    1.7979558 *  2.2889791 *  3.3974666    4.0600905  
  12 H       1.7979558 *  0.0000000    3.0816502    2.2177912 *  3.6154996  
  13 H       2.2889791 *  3.0816502    0.0000000    3.0425648    2.5247979 *
  14 H       3.3974666    2.2177912 *  3.0425648    0.0000000    1.8415627 *
  15 H       4.0600905    3.6154996    2.5247979 *  1.8415627 *  0.0000000  
  16 H       4.4969141    4.3192658    3.1379164    3.2852839    2.5600350 *
  17 H       3.0071913    3.4822240    2.7782934 *  3.9270948    3.9774336  
  18 H       3.3221770    3.1002489    4.3750520    4.2832926    5.2125554  
  19 H       5.0819839    3.9927101    5.9191948    4.4937852    5.7501481  
  20 H       6.0960362    4.7142104    6.1782835    3.9670444    4.9724430  

               16 H         17 H         18 H         19 H         20 H     

   1 C       3.6949856    2.5326432 *  2.7298880 *  4.1802116    4.9993038  
   2 C       3.0298235    2.6801921 *  3.7552164    5.0496566    5.3025120  
   3 C       2.4874563 *  3.2883262    4.2318333    4.8538154    4.4284571  
   4 C       1.0792586 *  2.2594555 *  3.3287596    3.8390209    3.4994463  
   5 C       2.1517641 *  1.0936721 *  1.9957914 *  3.2667722    3.9367811  
   6 C       3.3188413    2.0452481 *  1.1313764 *  2.3967348 *  3.6471979  
   7 C       3.7772861    3.3692270    2.1166567 *  1.1083656 *  2.1815707 *
   8 C       3.4385651    3.9633640    3.3453196    2.0704462 *  1.0876743 *
   9 C       2.2105902 *  3.5608727    3.8575984    3.3730319    2.1815940 *
  10 O       2.7217852 *  4.6180293    5.0818082    4.4025463    2.5887308 *
  11 H       4.4969141    3.0071913    3.3221770    5.0819839    6.0960362  
  12 H       4.3192658    3.4822240    3.1002489    3.9927101    4.7142104  
  13 H       3.1379164    2.7782934 *  4.3750520    5.9191948    6.1782835  
  14 H       3.2852839    3.9270948    4.2832926    4.4937852    3.9670444  
  15 H       2.5600350 *  3.9774336    5.2125554    5.7501481    4.9724430  
  16 H       0.0000000    2.5308430 *  4.1314556    4.7873312    4.2981485  
  17 H       2.5308430 *  0.0000000    2.3245217 *  4.1549099    5.0282973  
  18 H       4.1314556    2.3245217 *  0.0000000    2.4036763 *  4.2725895  
  19 H       4.7873312    4.1549099    2.4036763 *  0.0000000    2.4771077 *
  20 H       4.2981485    5.0282973    4.2725895    2.4771077 *  0.0000000  

  * ... LESS THAN  3.000


     ATOMIC BASIS SET
     ----------------
 THE CONTRACTED PRIMITIVE FUNCTIONS HAVE BEEN UNNORMALIZED
 THE CONTRACTED BASIS FUNCTIONS ARE NOW NORMALIZED TO UNITY

  SHELL TYPE  PRIMITIVE        EXPONENT          CONTRACTION COEFFICIENT(S)

 C         

      1   S       1            71.6168373    0.154328967295
      1   S       2            13.0450963    0.535328142282
      1   S       3             3.5305122    0.444634542185

      2   L       4             2.9412494   -0.099967229187    0.155916274999
      2   L       5             0.6834831    0.399512826089    0.607683718598
      2   L       6             0.2222899    0.700115468880    0.391957393099

 C         

      3   S       7            71.6168373    0.154328967295
      3   S       8            13.0450963    0.535328142282
      3   S       9             3.5305122    0.444634542185

      4   L      10             2.9412494   -0.099967229187    0.155916274999
      4   L      11             0.6834831    0.399512826089    0.607683718598
      4   L      12             0.2222899    0.700115468880    0.391957393099

 C         

      5   S      13            71.6168373    0.154328967295
      5   S      14            13.0450963    0.535328142282
      5   S      15             3.5305122    0.444634542185

      6   L      16             2.9412494   -0.099967229187    0.155916274999
      6   L      17             0.6834831    0.399512826089    0.607683718598
      6   L      18             0.2222899    0.700115468880    0.391957393099

 C         

      7   S      19            71.6168373    0.154328967295
      7   S      20            13.0450963    0.535328142282
      7   S      21             3.5305122    0.444634542185

      8   L      22             2.9412494   -0.099967229187    0.155916274999
      8   L      23             0.6834831    0.399512826089    0.607683718598
      8   L      24             0.2222899    0.700115468880    0.391957393099

 C         

      9   S      25            71.6168373    0.154328967295
      9   S      26            13.0450963    0.535328142282
      9   S      27             3.5305122    0.444634542185

     10   L      28             2.9412494   -0.099967229187    0.155916274999
     10   L      29             0.6834831    0.399512826089    0.607683718598
     10   L      30             0.2222899    0.700115468880    0.391957393099

 C         

     11   S      31            71.6168373    0.154328967295
     11   S      32            13.0450963    0.535328142282
     11   S      33             3.5305122    0.444634542185

     12   L      34             2.9412494   -0.099967229187    0.155916274999
     12   L      35             0.6834831    0.399512826089    0.607683718598
     12   L      36             0.2222899    0.700115468880    0.391957393099

 C         

     13   S      37            71.6168373    0.154328967295
     13   S      38            13.0450963    0.535328142282
     13   S      39             3.5305122    0.444634542185

     14   L      40             2.9412494   -0.099967229187    0.155916274999
     14   L      41             0.6834831    0.399512826089    0.607683718598
     14   L      42             0.2222899    0.700115468880    0.391957393099

 C         

     15   S      43            71.6168373    0.154328967295
     15   S      44            13.0450963    0.535328142282
     15   S      45             3.5305122    0.444634542185

     16   L      46             2.9412494   -0.099967229187    0.155916274999
     16   L      47             0.6834831    0.399512826089    0.607683718598
     16   L      48             0.2222899    0.700115468880    0.391957393099

 C         

     17   S      49            71.6168373    0.154328967295
     17   S      50            13.0450963    0.535328142282
     17   S      51             3.5305122    0.444634542185

     18   L      52             2.9412494   -0.099967229187    0.155916274999
     18   L      53             0.6834831    0.399512826089    0.607683718598
     18   L      54             0.2222899    0.700115468880    0.391957393099

 O         

     19   S      55           130.7093214    0.154328967295
     19   S      56            23.8088661    0.535328142282
     19   S      57             6.4436083    0.444634542185

     20   L      58             5.0331513   -0.099967229187    0.155916274999
     20   L      59             1.1695961    0.399512826089    0.607683718598
     20   L      60             0.3803890    0.700115468880    0.391957393099

 H         

     21   S      61             3.4252509    0.154328967295
     21   S      62             0.6239137    0.535328142282
     21   S      63             0.1688554    0.444634542185

 H         

     22   S      64             3.4252509    0.154328967295
     22   S      65             0.6239137    0.535328142282
     22   S      66             0.1688554    0.444634542185

 H         

     23   S      67             3.4252509    0.154328967295
     23   S      68             0.6239137    0.535328142282
     23   S      69             0.1688554    0.444634542185

 H         

     24   S      70             3.4252509    0.154328967295
     24   S      71             0.6239137    0.535328142282
     24   S      72             0.1688554    0.444634542185

 H         

     25   S      73             3.4252509    0.154328967295
     25   S      74             0.6239137    0.535328142282
     25   S      75             0.1688554    0.444634542185

 H         

     26   S      76             3.4252509    0.154328967295
     26   S      77             0.6239137    0.535328142282
     26   S      78             0.1688554    0.444634542185

 H         

     27   S      79             3.4252509    0.154328967295
     27   S      80             0.6239137    0.535328142282
     27   S      81             0.1688554    0.444634542185

 H         

     28   S      82             3.4252509    0.154328967295
     28   S      83             0.6239137    0.535328142282
     28   S      84             0.1688554    0.444634542185

 H         

     29   S      85             3.4252509    0.154328967295
     29   S      86             0.6239137    0.535328142282
     29   S      87             0.1688554    0.444634542185

 H         

     30   S      88             3.4252509    0.154328967295
     30   S      89             0.6239137    0.535328142282
     30   S      90             0.1688554    0.444634542185

 TOTAL NUMBER OF BASIS SET SHELLS             =   30
 NUMBER OF CARTESIAN GAUSSIAN BASIS FUNCTIONS =   60
 NUMBER OF ELECTRONS                          =   72
 CHARGE OF MOLECULE                           =    0
 SPIN MULTIPLICITY                            =    1
 NUMBER OF OCCUPIED ORBITALS (ALPHA)          =   36
 NUMBER OF OCCUPIED ORBITALS (BETA )          =   36
 TOTAL NUMBER OF ATOMS                        =   20
 THE NUCLEAR REPULSION ENERGY IS      505.7616554144

     $CONTRL OPTIONS
     ---------------
 SCFTYP=RHF          RUNTYP=OPTIMIZE     EXETYP=RUN     
 MPLEVL=       0     CITYP =NONE         CCTYP =NONE         VBTYP =NONE    
 DFTTYP=NONE         TDDFT =NONE    
 MULT  =       1     ICHARG=       0     NZVAR =       1     COORD =UNIQUE  
 PP    =NONE         RELWFN=NONE         LOCAL =NONE         NUMGRD=       F
 ISPHER=      -1     NOSYM =       0     MAXIT =      30     UNITS =ANGS    
 PLTORB=       F     MOLPLT=       F     AIMPAC=       F     FRIEND=        
 NPRINT=       7     IREST =       0     GEOM  =INPUT   
 NORMF =       0     NORMP =       0     ITOL  =      20     ICUT  =       9
 INTTYP=BEST         GRDTYP=BEST         QMTTOL= 1.0E-06

     $SYSTEM OPTIONS
     ---------------
  REPLICATED MEMORY=     1000000 WORDS (ON EVERY NODE).
 DISTRIBUTED MEMDDI=           0 MILLION WORDS IN AGGREGATE,
 MEMDDI DISTRIBUTED OVER   1 PROCESSORS IS           0 WORDS/PROCESSOR.
 TOTAL MEMORY REQUESTED ON EACH PROCESSOR=     1000000 WORDS.
 TIMLIM=      525600.00 MINUTES, OR     365.0 DAYS.
 PARALL= F  BALTYP=  DLB     KDIAG=    0  COREFL= F
 MXSEQ2=     300 MXSEQ3=     150  mem10=         0

          ----------------
          PROPERTIES INPUT
          ----------------

     MOMENTS            FIELD           POTENTIAL          DENSITY
 IEMOM =       1   IEFLD =       0   IEPOT =       0   IEDEN =       0
 WHERE =COMASS     WHERE =NUCLEI     WHERE =NUCLEI     WHERE =NUCLEI  
 OUTPUT=BOTH       OUTPUT=BOTH       OUTPUT=BOTH       OUTPUT=BOTH    
 IEMINT=       0   IEFINT=       0                     IEDINT=       0
                                                       MORB  =       0
          EXTRAPOLATION IN EFFECT
          SOSCF IN EFFECT
 ORBITAL PRINTING OPTION: NPREO=     1    60     2     1

     -------------------------------
     INTEGRAL TRANSFORMATION OPTIONS
     -------------------------------
     NWORD  =            0
     CUTOFF = 1.0E-09     MPTRAN =       0
     DIRTRF =       F     AOINTS =DUP     

          ----------------------
          INTEGRAL INPUT OPTIONS
          ----------------------
 NOPK  =       1 NORDER=       0 SCHWRZ=       T


 -----------------------------------------------
  STATISTICS ON AUTOMATIC COORDINATE GENERATION 
 -----------------------------------------------
  NUMBER OF USER SPECIFIED BONDS                             2
  NUMBER OF BONDS                                           21
  NUMBER OF ANGLES                                          39
  NUMBER OF TORSIONS                                        62
  NUMBER OF EXTRA COORD.                                     0
  NUMBER OF EXTRA COORD. FOR CONSTRAINTS                     0
  NUMBER OF CONSTRAINED COORD.                               2

  TOTAL NUMBER OF PRIMITIVES                               122
 -----------------------------------------------

   --- ENCODED Z MATRIX ---
 COORD  TYPE   I   J   K   L   M   N
    1      1    1   6
    2      1    3   4
    3      1    1   2
    4      1    1  12
    5      1    1  11
    6      1    2  13
    7      1    2   3
    8      1    3  14
    9      1    3  15
   10      1    4   9
   11      1    4   5
   12      1    4  16
   13      1    5   6
   14      1    5  17
   15      1    6   7
   16      1    6  18
   17      1    7   8
   18      1    7  19
   19      1    8  20
   20      1    8   9
   21      1    9  10
   22      2    1   2  13
   23      2    1   6   7
   24      2    1   6   5
   25      2    1   6  18
   26      2    1   2   3
   27      2    2   1  12
   28      2    2   1  11
   29      2    2   3  15
   30      2    2   3   4
   31      2    2   1   6
   32      2    2   3  14
   33      2    3   2  13
   34      2    3   4  16
   35      2    3   4   5
   36      2    3   4   9
   37      2    4   5  17
   38      2    4   5   6
   39      2    4   9  10
   40      2    4   9   8
   41      2    4   3  15
   42      2    4   3  14
   43      2    5   6   7
   44      2    5   4  16
   45      2    5   4   9
   46      2    5   6  18
   47      2    6   5  17
   48      2    6   1  12
   49      2    6   1  11
   50      2    6   7  19
   51      2    6   7   8
   52      2    7   8  20
   53      2    7   8   9
   54      2    7   6  18
   55      2    8   9  10
   56      2    8   7  19
   57      2    9   4  16
   58      2    9   8  20
   59      2   11   1  12
   60      2   14   3  15
   61      3    1   6   5  17
   62      3    1   6   5   4
   63      3    1   2   3  15
   64      3    1   2   3   4
   65      3    1   2   3  14
   66      3    1   6   7   8
   67      3    1   6   7  19
   68      3    2   3   4   9
   69      3    2   1   6  18
   70      3    2   1   6   5
   71      3    2   1   6   7
   72      3    2   3   4  16
   73      3    2   3   4   5
   74      3    3   4   9  10
   75      3    3   4   9   8
   76      3    3   4   5  17
   77      3    3   4   5   6
   78      3    3   2   1  11
   79      3    3   2   1   6
   80      3    3   2   1  12
   81      3    4   3   2  13
   82      3    4   9   8  20
   83      3    4   9   8   7
   84      3    4   5   6  18
   85      3    4   5   6   7
   86      3    5   4   3  15
   87      3    5   4   3  14
   88      3    5   6   1  11
   89      3    5   6   7  19
   90      3    5   6   7   8
   91      3    5   6   1  12
   92      3    5   4   9   8
   93      3    5   4   9  10
   94      3    6   5   4  16
   95      3    6   5   4   9
   96      3    6   7   8   9
   97      3    6   7   8  20
   98      3    6   1   2  13
   99      3    7   8   9  10
  100      3    7   6   1  11
  101      3    7   6   1  12
  102      3    7   6   5  17
  103      3    8   7   6  18
  104      3    8   9   4  16
  105      3    9   4   5  17
  106      3    9   8   7  19
  107      3    9   4   3  15
  108      3    9   4   3  14
  109      3   10   9   8  20
  110      3   10   9   4  16
  111      3   11   1   2  13
  112      3   11   1   6  18
  113      3   12   1   6  18
  114      3   12   1   2  13
  115      3   13   2   3  15
  116      3   13   2   3  14
  117      3   14   3   4  16
  118      3   15   3   4  16
  119      3   16   4   5  17
  120      3   17   5   6  18
  121      3   18   6   7  19
  122      3   19   7   8  20

          INDEP./SYM. INTERNAL COORDINATES
          --------------------------------
 CRD  1=   1.0000 (  1)
 CRD  2=   1.0000 (  2)
 CRD  3=  -0.1637 (  3) -0.1473 (  9) -0.1543 ( 10)  0.3535 ( 15) -0.2483 ( 20)
           0.2194 ( 22) -0.1888 ( 26) -0.1302 ( 27)  0.1254 ( 30) -0.1287 ( 35)
          -0.1230 ( 38) -0.1178 ( 39)  0.1290 ( 40)  0.1043 ( 45)  0.1227 ( 50)
           0.2125 ( 52) -0.1041 ( 53) -0.1154 ( 56) -0.1685 ( 57) -0.1070 ( 58)
          -0.1069 ( 62) -0.1097 ( 64)  0.2317 ( 68)  0.1097 ( 70)  0.1281 ( 71)
           0.1449 ( 73)  0.1076 ( 74)  0.1631 (107)  0.1676 (108)
 CRD  4=   0.1476 (  3)  0.1351 (  5)  0.2665 (  7) -0.1057 ( 10)  0.1950 ( 17)
          -0.1058 ( 22)  0.1449 ( 24) -0.1639 ( 25)  0.2587 ( 26)  0.2572 ( 28)
          -0.3305 ( 31) -0.1572 ( 33)  0.1588 ( 38) -0.1495 ( 40) -0.1499 ( 41)
          -0.1781 ( 43)  0.1178 ( 45)  0.1007 ( 48)  0.1167 ( 54)  0.1394 ( 55)
          -0.1159 ( 59) -0.1356 ( 61) -0.1480 ( 62) -0.1173 ( 64) -0.1501 ( 81)
          -0.1016 ( 87)  0.1416 (101)  0.1197 (106)
 CRD  5=   0.3951 (  3)  0.1798 (  5)  0.1211 (  9)  0.1226 ( 10)  0.4795 ( 15)
           0.1332 ( 16)  0.1876 ( 18) -0.1337 ( 33)  0.1083 ( 35)  0.1547 ( 49)
           0.2801 ( 50) -0.1067 ( 55) -0.1957 ( 56)  0.1277 ( 64) -0.1265 ( 74)
          -0.1511 ( 75)  0.1297 ( 81)
 CRD  6=   0.1107 (  7)  0.1519 ( 10)  0.1100 ( 11) -0.2463 ( 17) -0.1300 ( 18)
          -0.1548 ( 19) -0.4118 ( 20)  0.1474 ( 28)  0.1179 ( 37)  0.4498 ( 39)
          -0.1231 ( 49)  0.1338 ( 50)  0.1234 ( 53) -0.4380 ( 55) -0.1570 ( 56)
          -0.1780 ( 58)
 CRD  7=  -0.1221 (  3) -0.1398 (  7) -0.1786 ( 10) -0.2135 ( 11) -0.1003 ( 12)
          -0.1188 ( 20) -0.1544 ( 22)  0.1392 ( 29)  0.1534 ( 33) -0.1378 ( 34)
          -0.1026 ( 37) -0.2182 ( 41)  0.1136 ( 42)  0.1252 ( 47)  0.1920 ( 48)
           0.1520 ( 63) -0.1327 ( 66) -0.1263 ( 69) -0.1370 ( 70) -0.1139 ( 71)
          -0.1577 ( 74) -0.1937 ( 75)  0.1499 ( 78)  0.1962 ( 79) -0.1398 ( 81)
           0.1128 ( 82)  0.1336 ( 83) -0.1064 ( 89) -0.1466 ( 90) -0.1756 ( 92)
          -0.1396 ( 93)  0.1587 ( 98)  0.1007 ( 99) -0.1110 (103)  0.1124 (111)
           0.1117 (115)
 CRD  8=   0.1591 (  3) -0.1136 (  7) -0.2796 ( 13) -0.1146 ( 14) -0.2755 ( 15)
          -0.1847 ( 17) -0.1481 ( 18)  0.2102 ( 22)  0.1149 ( 24)  0.1605 ( 25)
          -0.1163 ( 27) -0.1771 ( 33)  0.2439 ( 37) -0.1068 ( 40) -0.1985 ( 47)
           0.1292 ( 48) -0.1361 ( 50)  0.1273 ( 51) -0.1034 ( 52) -0.1531 ( 54)
           0.1298 ( 55)  0.1339 ( 58)  0.1710 ( 61) -0.1275 ( 84)  0.1103 ( 85)
          -0.1583 ( 89) -0.1441 ( 90)  0.2167 (102)
 CRD  9=  -0.1106 (  3)  0.3065 ( 10) -0.1086 ( 11) -0.1019 ( 13)  0.1014 ( 14)
           0.1250 ( 15) -0.1038 ( 16) -0.2058 ( 17)  0.1537 ( 19)  0.2426 ( 20)
          -0.1187 ( 41)  0.1022 ( 50)  0.1655 ( 51) -0.2628 ( 52) -0.1667 ( 53)
          -0.2630 ( 56)  0.4297 ( 58) -0.1046 ( 61) -0.1374 ( 62) -0.1251 ( 65)
           0.1126 ( 95)  0.1336 (105) -0.1429 (116)
 CRD 10=   0.1406 (  3) -0.2945 ( 10) -0.1036 ( 11)  0.2184 ( 13) -0.4094 ( 17)
          -0.1816 ( 19) -0.1670 ( 21)  0.1135 ( 28) -0.1250 ( 37) -0.1737 ( 39)
           0.1112 ( 42)  0.1726 ( 47)  0.2996 ( 50) -0.2565 ( 52)  0.1226 ( 55)
          -0.2761 ( 56)  0.1743 ( 58) -0.1240 ( 76)  0.1102 ( 92)  0.1255 ( 93)
          -0.1455 (105)
 CRD 11=  -0.2905 (  3) -0.1096 (  4)  0.3696 (  7)  0.1844 (  8) -0.2169 ( 13)
          -0.3703 ( 22) -0.1463 ( 28) -0.1349 ( 30)  0.3343 ( 33)  0.1259 ( 35)
           0.1341 ( 37)  0.1114 ( 42)  0.1413 ( 49) -0.1448 ( 60)  0.1141 ( 61)
           0.1095 ( 65)  0.1052 ( 78)
 CRD 12=  -0.2613 (  3) -0.1700 (  6) -0.3161 (  7) -0.1101 (  9) -0.2687 ( 11)
          -0.2796 ( 13) -0.2137 ( 14) -0.1599 ( 19)  0.1260 ( 26) -0.1820 ( 28)
          -0.1445 ( 29) -0.1070 ( 33)  0.1800 ( 38)  0.1476 ( 39) -0.1106 ( 40)
           0.2166 ( 49)  0.2199 ( 50) -0.1076 ( 51)  0.1373 ( 53) -0.1183 ( 56)
          -0.1091 ( 86)  0.1253 (100)  0.1003 (103) -0.1274 (107)
 CRD 13=  -0.1101 (  4)  0.2017 (  6)  0.3302 (  7) -0.1824 ( 10) -0.2056 ( 14)
          -0.1699 ( 19)  0.1510 ( 23) -0.1409 ( 26) -0.1235 ( 28)  0.1250 ( 31)
           0.1025 ( 32)  0.1827 ( 33)  0.1186 ( 38) -0.2798 ( 42)  0.1517 ( 44)
          -0.1144 ( 47) -0.1940 ( 48) -0.1176 ( 51)  0.1407 ( 53) -0.1004 ( 54)
           0.1237 ( 63)  0.1087 ( 64) -0.1373 ( 65) -0.1534 ( 79)  0.1425 ( 86)
          -0.1585 ( 98) -0.1812 (116)
 CRD 14=   0.1214 (  3) -0.3867 ( 11) -0.1535 ( 12) -0.1928 ( 13) -0.1851 ( 16)
          -0.1664 ( 18)  0.1842 ( 19) -0.1820 ( 20) -0.3084 ( 21)  0.1354 ( 27)
           0.2156 ( 40) -0.1241 ( 48) -0.1848 ( 50)  0.1198 ( 51)  0.2473 ( 52)
          -0.2901 ( 53) -0.1403 ( 55)  0.1147 ( 64) -0.1189 ( 78)
 CRD 15=  -0.1279 (  3)  0.1787 (  5) -0.1142 (  6)  0.1031 ( 10) -0.2287 ( 11)
           0.2110 ( 12)  0.2542 ( 13)  0.1059 ( 18)  0.1351 ( 25) -0.1773 ( 27)
           0.1194 ( 32)  0.1815 ( 48) -0.1019 ( 50) -0.2260 ( 54) -0.1552 ( 55)
           0.1603 ( 56)  0.1538 ( 57) -0.1117 ( 59) -0.1208 ( 65)  0.1050 ( 69)
          -0.1708 ( 76) -0.1344 ( 77) -0.1971 ( 80) -0.1318 ( 84)  0.1026 ( 85)
          -0.1075 (107) -0.1448 (108) -0.1734 (114) -0.1233 (116) -0.1144 (119)
          -0.1726 (120)
 CRD 16=   0.1016 (  7) -0.1232 ( 11) -0.3155 ( 12)  0.2154 ( 21) -0.1794 ( 27)
           0.1084 ( 28) -0.1335 ( 29)  0.1734 ( 32) -0.1856 ( 37)  0.1115 ( 39)
          -0.1724 ( 40)  0.1419 ( 41) -0.1503 ( 42) -0.1937 ( 44)  0.1439 ( 45)
           0.1965 ( 47)  0.1026 ( 48) -0.2104 ( 49) -0.1138 ( 66)  0.1298 ( 68)
           0.1335 ( 72) -0.1445 ( 75) -0.1350 ( 78)  0.1013 ( 84) -0.1388 ( 86)
          -0.1728 ( 87) -0.1595 ( 91) -0.1296 (103) -0.1541 (104) -0.1011 (105)
          -0.1035 (110) -0.1082 (111) -0.1058 (121)
 CRD 17=   0.1581 (  4) -0.1334 (  5)  0.2526 ( 12) -0.1799 ( 13) -0.2280 ( 16)
           0.2893 ( 18)  0.1259 ( 28)  0.1448 ( 34) -0.1286 ( 47)  0.1650 ( 48)
          -0.2329 ( 49) -0.1144 ( 51) -0.1439 ( 69) -0.1421 ( 71) -0.2028 ( 78)
          -0.1600 ( 80) -0.1240 ( 90)  0.1184 ( 94)  0.1007 ( 95)  0.1597 ( 96)
           0.1380 ( 97) -0.1445 (101)  0.1455 (105)  0.1207 (106) -0.1641 (111)
          -0.1463 (113) -0.1213 (114)  0.1631 (119)  0.1012 (120)
 CRD 18=  -0.1645 (  3) -0.1354 (  4) -0.4007 (  6) -0.2044 (  8)  0.1775 (  9)
          -0.1084 ( 10)  0.1469 ( 11)  0.1045 ( 12)  0.1202 ( 19) -0.2119 ( 21)
          -0.1591 ( 25)  0.1289 ( 26)  0.1049 ( 28)  0.1059 ( 41) -0.1613 ( 42)
           0.1278 ( 54) -0.1127 ( 63) -0.1277 ( 65) -0.1468 ( 68) -0.1496 ( 72)
           0.1292 ( 83)  0.1942 ( 84)  0.1327 ( 99) -0.1038 (107) -0.1016 (115)
          -0.1166 (116) -0.1067 (118)  0.1810 (120)
 CRD 19=   0.1157 ( 12) -0.2769 ( 14)  0.5914 ( 16) -0.2086 ( 18)  0.1174 ( 19)
          -0.1552 ( 21) -0.1492 ( 27)  0.1453 ( 38)  0.1948 ( 48) -0.1276 ( 70)
          -0.1135 ( 80) -0.1006 ( 83) -0.1051 ( 85)  0.1031 ( 90) -0.1835 ( 91)
          -0.1408 (102) -0.1100 (113) -0.1162 (114)
 CRD 20=  -0.2891 (  6) -0.3288 (  8)  0.1335 (  9) -0.3809 ( 12)  0.2773 ( 14)
           0.1203 ( 18) -0.1228 ( 19)  0.1429 ( 25) -0.1118 ( 27) -0.1263 ( 42)
           0.1163 ( 48) -0.1249 ( 54) -0.1210 ( 72) -0.1165 ( 73)  0.1363 ( 77)
          -0.1049 ( 78) -0.1396 ( 80) -0.1141 ( 83) -0.2045 ( 84) -0.1118 ( 99)
           0.1116 (103)  0.1004 (104)  0.1031 (110) -0.1051 (114) -0.1354 (120)
 CRD 21=   0.3671 (  4) -0.1558 (  5)  0.3004 (  6) -0.1069 ( 12)  0.2143 ( 14)
          -0.1240 ( 29)  0.1140 ( 32)  0.2237 ( 41) -0.2120 ( 42)  0.1306 ( 49)
          -0.1149 ( 59) -0.3028 ( 63) -0.3183 ( 65)  0.1455 ( 78)  0.1121 ( 79)
          -0.1042 ( 86) -0.2325 (115) -0.2480 (116) -0.1086 (118)
 CRD 22=  -0.2459 (  4)  0.2583 (  5)  0.1680 (  9)  0.1311 ( 12)  0.1783 ( 14)
           0.1455 ( 34)  0.1444 ( 41)  0.1127 ( 46)  0.1213 ( 49) -0.1093 ( 61)
          -0.1257 ( 62) -0.1882 ( 63) -0.1688 ( 66) -0.1419 ( 67)  0.1080 ( 69)
           0.1035 ( 77)  0.1419 ( 78)  0.1584 ( 80) -0.1681 ( 84) -0.1002 ( 85)
          -0.1158 ( 92) -0.1041 ( 93)  0.2264 ( 94)  0.1909 ( 95)  0.1575 ( 96)
           0.1413 ( 97) -0.1706 (103) -0.1445 (104)  0.1186 (105)  0.1365 (106)
          -0.1328 (110) -0.1145 (115)  0.1542 (119) -0.1516 (120) -0.1437 (121)
           0.1203 (122)
 CRD 23=  -0.2389 (  4) -0.6312 (  5) -0.1231 (  8)  0.2735 (  9)  0.1143 ( 12)
          -0.1211 ( 18)  0.1382 ( 21)  0.1080 ( 29) -0.1012 ( 32) -0.1659 ( 59)
          -0.2009 ( 80)  0.1272 ( 86)  0.1283 ( 87)  0.1375 ( 91)  0.1515 (101)
          -0.1132 (104)  0.1204 (107)  0.1215 (108)  0.1305 (113) -0.1771 (114)
           0.1234 (117)  0.1223 (118)
 CRD 24=   0.1828 (  4)  0.1683 (  5)  0.4469 (  8)  0.6772 (  9) -0.1420 ( 14)
          -0.1426 ( 32)  0.2174 ( 60) -0.1011 ( 65)  0.1706 ( 87)  0.1741 (108)
           0.1840 (117)
 CRD 25=  -0.3695 (  4) -0.2807 (  5)  0.5072 (  8) -0.1013 ( 10)  0.1096 ( 11)
           0.2099 ( 14) -0.2066 ( 21) -0.1648 ( 29) -0.1104 ( 41)  0.1367 ( 60)
           0.1713 ( 63) -0.2217 ( 86) -0.1360 ( 87) -0.2184 (107) -0.1326 (108)
           0.1496 (115) -0.1498 (117) -0.2355 (118)
 CRD 26=  -0.4248 (  4)  0.1545 (  6) -0.1244 (  8) -0.1622 ( 12) -0.2822 ( 14)
          -0.1585 ( 16)  0.2030 ( 18) -0.1081 ( 34) -0.1490 ( 59) -0.1391 ( 63)
          -0.1055 ( 65)  0.2178 ( 78)  0.1018 ( 79) -0.1547 ( 82) -0.1095 ( 83)
           0.1099 ( 84) -0.1544 ( 88)  0.1153 ( 92) -0.1424 ( 94)  0.1284 ( 97)
          -0.1769 (100)  0.1711 (104) -0.1287 (109)  0.1425 (110)  0.1565 (111)
          -0.1119 (112) -0.1086 (119)
 CRD 27=   0.2561 (  4) -0.1432 (  6)  0.1236 ( 13) -0.1187 ( 16)  0.1055 ( 19)
          -0.1043 ( 28)  0.1062 ( 46) -0.1789 ( 66) -0.2033 ( 67)  0.1203 ( 69)
           0.1008 ( 71) -0.1728 ( 82) -0.1308 ( 83) -0.1474 ( 89) -0.1230 ( 90)
           0.1019 ( 93)  0.1730 ( 96)  0.2197 ( 97) -0.1452 ( 99)  0.1710 (100)
           0.1063 (101) -0.2192 (103)  0.1062 (104)  0.1858 (106) -0.1871 (109)
           0.1194 (110)  0.1905 (112)  0.1257 (113) -0.2436 (121)  0.2326 (122)
 CRD 28=   0.1938 ( 10)  0.3151 ( 12) -0.1646 ( 16) -0.1035 ( 17) -0.3999 ( 18)
          -0.3433 ( 19)  0.2433 ( 21) -0.1223 ( 34) -0.2838 ( 39)  0.3001 ( 52)
           0.2651 ( 55) -0.2820 ( 58) -0.1041 (119)
 CRD 29=  -0.1196 ( 10) -0.1297 ( 14) -0.1887 ( 15) -0.2885 ( 16)  0.5447 ( 19)
           0.1055 ( 20)  0.2521 ( 21)  0.1594 ( 25)  0.2704 ( 50)  0.1355 ( 52)
          -0.1249 ( 54) -0.2700 ( 56) -0.1615 ( 58) -0.1319 ( 84) -0.1094 (120)
 CRD 30=  -0.1406 ( 10) -0.2645 ( 12) -0.1039 ( 14) -0.1961 ( 16) -0.2492 ( 18)
           0.1203 ( 19)  0.1004 ( 20)  0.1321 ( 21)  0.1360 ( 42)  0.1010 ( 48)
          -0.1067 ( 59) -0.1140 ( 61)  0.1655 ( 65)  0.2079 ( 67) -0.2017 ( 74)
           0.1228 ( 76) -0.1563 ( 80) -0.2176 ( 82)  0.1968 ( 89) -0.2259 ( 93)
           0.2403 ( 97)  0.2088 ( 99) -0.1215 (102)  0.1814 (105) -0.1704 (106)
          -0.1207 (110) -0.1529 (114)  0.1822 (116)  0.1325 (121)
 CRD 31=   0.1305 (  3) -0.1257 (  6) -0.1812 (  7)  0.1294 (  8) -0.1811 (  9)
          -0.1744 ( 11) -0.2185 ( 12)  0.1677 ( 13)  0.3037 ( 16) -0.2245 ( 17)
           0.1600 ( 20)  0.2834 ( 21) -0.2001 ( 22)  0.1344 ( 27)  0.1317 ( 28)
           0.1990 ( 33)  0.1770 ( 37) -0.1318 ( 47) -0.1058 ( 49)  0.1422 ( 52)
          -0.1034 ( 58)  0.1056 ( 61) -0.1139 ( 81)  0.1362 ( 91) -0.1023 (100)
           0.1472 (102)  0.1468 (113) -0.1473 (115) -0.1604 (116)  0.1129 (120)
 CRD 32=  -0.2246 (  4)  0.2447 (  5)  0.3856 (  6) -0.1372 (  7) -0.1522 (  8)
          -0.2208 ( 10)  0.3656 ( 14) -0.2985 ( 18)  0.1218 ( 19)  0.1956 ( 20)
          -0.1291 ( 21)  0.1438 ( 39) -0.1224 ( 51)  0.1110 ( 54) -0.1133 ( 80)
           0.1690 ( 84) -0.1132 (113)  0.1279 (117)  0.1332 (120)
 CRD 33=  -0.1206 (  3) -0.1024 (  5)  0.2015 (  7) -0.1560 ( 10)  0.2022 ( 15)
          -0.2610 ( 17) -0.1546 ( 18)  0.2430 ( 20)  0.2720 ( 21)  0.2356 ( 22)
          -0.1128 ( 28)  0.1050 ( 29) -0.2201 ( 33)  0.1067 ( 39)  0.1260 ( 49)
          -0.1648 ( 50) -0.2012 ( 55)  0.1668 ( 56) -0.1387 ( 72) -0.1017 ( 91)
           0.1260 ( 94) -0.1321 (101) -0.1086 (108) -0.1763 (113)  0.1085 (115)
          -0.1795 (117)  0.1040 (120)
 CRD 34=  -0.2099 (  3)  0.1614 (  6)  0.1540 (  7)  0.1627 ( 10) -0.1499 ( 11)
          -0.2086 ( 12)  0.2523 ( 13) -0.1570 ( 15)  0.1118 ( 16) -0.1836 ( 21)
           0.1356 ( 22) -0.1593 ( 33)  0.2365 ( 37) -0.1214 ( 39) -0.1227 ( 44)
          -0.2504 ( 47)  0.1382 ( 50)  0.1817 ( 52)  0.1741 ( 55) -0.1880 ( 56)
           0.1492 ( 57) -0.2079 ( 58) -0.1216 ( 91) -0.1244 (101)  0.1155 (102)
           0.1058 (105)  0.1153 (116)
 CRD 35=   0.1404 (  3)  0.1093 (  8) -0.1410 (  9)  0.1856 ( 10)  0.1744 ( 11)
          -0.2527 ( 12)  0.1562 ( 13) -0.2852 ( 14)  0.1678 ( 15) -0.2582 ( 16)
           0.2324 ( 17) -0.3379 ( 18) -0.2847 ( 19)  0.2317 ( 20) -0.3737 ( 21)
           0.1010 ( 82)  0.1038 ( 94) -0.1076 ( 97)
 CRD 36=   0.2632 (  3) -0.4495 (  6)  0.1088 (  7)  0.2095 (  8) -0.1686 (  9)
           0.2894 ( 14) -0.1117 ( 15)  0.1694 ( 19) -0.1059 ( 21) -0.1237 ( 25)
          -0.1110 ( 26)  0.1270 ( 49)  0.1041 ( 57) -0.1011 ( 58) -0.1017 ( 59)
           0.1491 ( 72)  0.1383 ( 78)  0.1325 ( 84)  0.1383 ( 86) -0.1159 ( 88)
          -0.1045 (100)  0.1028 (107) -0.1200 (112)  0.1424 (117)  0.2138 (118)
 CRD 37=   0.1555 (  3)  0.1079 (  6) -0.1109 (  9)  0.1109 ( 13) -0.1148 ( 15)
          -0.1321 ( 16)  0.1773 ( 18) -0.1817 ( 20)  0.1810 ( 21) -0.1080 ( 22)
          -0.1049 ( 25) -0.1297 ( 27) -0.1366 ( 32)  0.1097 ( 48)  0.1188 ( 49)
          -0.1181 ( 50)  0.1026 ( 51)  0.1330 ( 54) -0.1130 ( 67)  0.1288 ( 81)
           0.1993 ( 82) -0.1246 ( 85)  0.1005 ( 95) -0.2238 ( 97) -0.2280 ( 98)
          -0.1021 (102)  0.1096 (106) -0.1300 (107)  0.1294 (109)  0.1351 (110)
          -0.1432 (111) -0.2665 (114)  0.1838 (116) -0.1126 (118) -0.1487 (121)
 CRD 38=  -0.1583 (  5) -0.1121 (  6)  0.1426 (  7) -0.1863 ( 10)  0.1345 ( 14)
           0.1342 ( 17) -0.1304 ( 19)  0.1151 ( 20) -0.1340 ( 29) -0.1651 ( 34)
           0.1097 ( 39)  0.1470 ( 41)  0.1317 ( 42) -0.1038 ( 48) -0.1486 ( 55)
          -0.2156 ( 63) -0.1201 ( 67)  0.1002 ( 80) -0.1231 ( 84) -0.1529 ( 89)
          -0.1231 ( 93) -0.2577 ( 94)  0.1149 (103)  0.1991 (104)  0.1468 (106)
           0.1366 (109)  0.1282 (110) -0.1285 (111) -0.1113 (112) -0.1602 (115)
           0.1528 (116) -0.2359 (119) -0.1556 (120)
 CRD 39=  -0.1023 (  3)  0.1185 (  4) -0.1121 (  8)  0.2242 ( 11) -0.2213 ( 13)
           0.1935 ( 15) -0.4419 ( 17)  0.1390 ( 19)  0.3151 ( 20) -0.2050 ( 21)
          -0.1528 ( 40) -0.1221 ( 50)  0.1602 ( 52) -0.2334 ( 58)  0.1387 ( 69)
           0.1462 (113)  0.1282 (117) -0.1027 (119)
 CRD 40=  -0.1005 (  9) -0.1048 ( 10) -0.1393 ( 13)  0.1856 ( 14) -0.1033 ( 15)
           0.1429 ( 18) -0.2950 ( 19)  0.2357 ( 20)  0.1353 ( 38)  0.1320 ( 46)
           0.2052 ( 51)  0.1918 ( 52) -0.2533 ( 53) -0.1688 ( 55) -0.2143 ( 56)
          -0.1097 ( 76) -0.1088 ( 82)  0.1685 ( 89) -0.1580 ( 91)  0.1157 ( 97)
          -0.1065 ( 98) -0.1365 (104) -0.1677 (105) -0.1451 (106) -0.1055 (109)
          -0.1502 (110)  0.1024 (115)  0.1004 (120)
 CRD 41=   0.1129 (  4) -0.1279 (  5) -0.1314 (  8) -0.1485 ( 11)  0.1538 ( 12)
           0.2897 ( 15) -0.2569 ( 18)  0.1187 ( 19) -0.2375 ( 20)  0.1049 ( 21)
          -0.1104 ( 29)  0.1852 ( 37) -0.1063 ( 44)  0.1473 ( 46) -0.1573 ( 47)
          -0.1504 ( 51) -0.2258 ( 52)  0.1137 ( 53) -0.1228 ( 54)  0.1807 ( 56)
           0.1139 ( 58)  0.1162 ( 60)  0.1058 ( 61) -0.1149 ( 84) -0.1745 ( 86)
          -0.1523 ( 88)  0.1512 ( 89) -0.1525 ( 91) -0.1071 ( 99)  0.1528 (102)
          -0.1108 (107) -0.1455 (109)
 CRD 42=   0.1202 (  8) -0.1521 (  9)  0.2040 ( 10) -0.1215 ( 12) -0.1909 ( 17)
           0.2046 ( 19) -0.1753 ( 20) -0.1278 ( 32) -0.1109 ( 46)  0.1258 ( 47)
          -0.1044 ( 50)  0.1574 ( 53)  0.1277 ( 55)  0.1164 ( 56)  0.1424 ( 59)
          -0.1028 ( 68) -0.1097 ( 69) -0.1010 ( 74) -0.1897 ( 76) -0.1331 ( 82)
           0.1039 ( 87)  0.1089 ( 88) -0.1718 ( 93)  0.1612 ( 97) -0.1088 ( 98)
           0.1537 ( 99)  0.1559 (100)  0.1116 (102)  0.1465 (103) -0.1922 (105)
          -0.1566 (110) -0.1260 (111) -0.2005 (113) -0.1882 (119)  0.1482 (121)
           0.1791 (122)
 CRD 43=   0.1995 (  3) -0.1790 (  5) -0.2082 ( 10)  0.1336 ( 11)  0.1160 ( 15)
          -0.1425 ( 16) -0.1347 ( 17)  0.1179 ( 18) -0.1028 ( 22) -0.1316 ( 23)
          -0.1578 ( 27) -0.1038 ( 39) -0.1360 ( 44) -0.1035 ( 47) -0.1074 ( 50)
           0.1335 ( 57)  0.1447 ( 59)  0.1249 ( 63)  0.1503 ( 71)  0.1323 ( 72)
          -0.1197 ( 77) -0.1503 ( 81) -0.1390 ( 91)  0.1121 ( 92)  0.1215 ( 98)
           0.1546 (100) -0.1968 (102)  0.1253 (105)  0.1064 (109) -0.1341 (110)
           0.1466 (111)  0.1000 (112)  0.2501 (114) -0.1959 (116)  0.1204 (117)
           0.1239 (119) -0.1516 (120)
 CRD 44=  -0.2810 (  3)  0.1144 (  6)  0.1956 (  7)  0.1416 (  8) -0.2507 (  9)
           0.2218 ( 11) -0.1684 ( 12) -0.1548 ( 13)  0.1088 ( 17) -0.1527 ( 20)
           0.1446 ( 21)  0.1133 ( 22)  0.1205 ( 29) -0.1923 ( 32) -0.2161 ( 33)
          -0.1141 ( 37) -0.1486 ( 39)  0.1673 ( 40) -0.1600 ( 45) -0.1026 ( 49)
           0.1773 ( 57) -0.2222 ( 68)  0.1823 ( 87) -0.1011 (107)  0.1330 (113)
           0.1988 (117) -0.1035 (120)
 CRD 45=  -0.1559 (  6)  0.3565 (  7) -0.2043 (  8)  0.1410 ( 11)  0.1127 ( 13)
          -0.1822 ( 14) -0.2215 ( 15)  0.1099 ( 22) -0.1451 ( 26) -0.1222 ( 28)
          -0.2022 ( 29) -0.1404 ( 38) -0.1030 ( 44) -0.1340 ( 46)  0.1277 ( 47)
           0.2515 ( 60) -0.1067 ( 62) -0.1685 ( 69) -0.2304 ( 86)  0.1493 ( 88)
           0.1002 ( 91) -0.1783 (107)  0.1249 (108)  0.1681 (117) -0.1352 (118)
           0.1023 (120)
 CRD 46=   0.1065 (  3) -0.1114 (  5)  0.2006 ( 10) -0.2142 ( 11) -0.1035 ( 21)
           0.1044 ( 23) -0.1015 ( 30)  0.1149 ( 35) -0.1264 ( 36)  0.1101 ( 41)
           0.1850 ( 44) -0.1155 ( 57)  0.1284 ( 59)  0.1242 ( 67) -0.1504 ( 72)
          -0.1617 ( 75) -0.1031 ( 77)  0.1302 ( 85)  0.1715 ( 87)  0.1149 ( 88)
           0.1159 ( 89) -0.1015 ( 90) -0.1133 ( 92)  0.1240 ( 93) -0.1481 ( 99)
           0.1450 (100)  0.1181 (105) -0.1714 (106)  0.1206 (108) -0.1734 (109)
           0.2543 (110)  0.1412 (114) -0.1406 (115) -0.2065 (118)  0.1107 (119)
           0.1686 (121) -0.1457 (122)
 CRD 47=  -0.1002 (  3)  0.1340 (  7) -0.2524 (  9) -0.2036 ( 11)  0.2116 ( 12)
           0.1081 ( 26) -0.1723 ( 32) -0.1285 ( 33)  0.1598 ( 35)  0.1009 ( 39)
          -0.1295 ( 40) -0.1343 ( 42)  0.1633 ( 45) -0.1660 ( 57)  0.1448 ( 60)
           0.1381 ( 64)  0.1164 ( 66) -0.1880 ( 72) -0.1644 ( 73) -0.2392 ( 74)
           0.1242 ( 81)  0.1607 ( 92) -0.1326 (100)  0.1399 (104)  0.1050 (106)
           0.1240 (107)  0.2769 (108)  0.1196 (109) -0.1223 (121)
 CRD 48=  -0.1721 (  4)  0.2001 (  8) -0.2053 ( 10)  0.1755 ( 12)  0.1922 ( 13)
          -0.1067 ( 14)  0.1375 ( 29) -0.1225 ( 34)  0.1323 ( 37) -0.1013 ( 42)
          -0.1487 ( 44)  0.1380 ( 45) -0.1090 ( 60) -0.1379 ( 63) -0.1047 ( 69)
          -0.2255 ( 73) -0.1062 ( 75)  0.2300 ( 76)  0.1630 ( 77) -0.1106 ( 78)
          -0.1655 ( 87)  0.1413 ( 88)  0.1100 ( 93)  0.2215 (100)  0.1515 (107)
          -0.1481 (109)  0.1108 (110) -0.1342 (111)  0.1221 (112)  0.2114 (118)
           0.1117 (121)
 CRD 49=   0.1276 (  4) -0.1915 (  5) -0.1759 (  7) -0.1047 ( 10)  0.1640 ( 11)
          -0.1255 ( 15)  0.2388 ( 16)  0.1149 ( 17) -0.1344 ( 22)  0.1361 ( 23)
          -0.1214 ( 25)  0.1383 ( 26) -0.1400 ( 27) -0.1137 ( 31) -0.1686 ( 38)
           0.1079 ( 43) -0.1434 ( 46)  0.1029 ( 47)  0.1502 ( 49)  0.1305 ( 50)
          -0.1000 ( 51) -0.1970 ( 61)  0.1442 ( 67)  0.1137 ( 69)  0.2745 ( 70)
          -0.1389 ( 79)  0.1057 ( 80)  0.1082 ( 85) -0.1207 ( 89) -0.1691 ( 90)
          -0.2168 ( 98) -0.1638 (100) -0.2194 (101) -0.1207 (113)  0.1133 (118)
 CRD 50=  -0.1008 ( 18) -0.1102 ( 20) -0.2361 ( 23)  0.3127 ( 24) -0.1234 ( 26)
           0.1003 ( 27) -0.1523 ( 28)  0.2682 ( 30)  0.1190 ( 33)  0.1453 ( 34)
          -0.1643 ( 36) -0.1149 ( 41) -0.1159 ( 42)  0.1384 ( 49)  0.1336 ( 62)
           0.1558 ( 66)  0.1770 ( 67) -0.1646 ( 70) -0.2747 ( 71)  0.1310 ( 74)
          -0.1420 ( 76) -0.1764 ( 77) -0.1001 ( 92) -0.1977 (101)  0.2410 (112)
 CRD 51=   0.1221 (  3) -0.1853 ( 13)  0.1076 ( 43)  0.1058 ( 46)  0.1036 ( 61)
          -0.1329 ( 62)  0.1200 ( 65)  0.1471 ( 67)  0.1150 ( 69) -0.1165 ( 76)
           0.1481 ( 77) -0.1104 ( 78) -0.1030 ( 80) -0.1161 ( 81) -0.1659 ( 83)
          -0.1035 ( 85)  0.1542 ( 88) -0.1130 ( 93)  0.1528 ( 95)  0.1593 ( 96)
          -0.1341 ( 97)  0.1630 ( 98) -0.1309 (101)  0.1330 (102) -0.1735 (103)
           0.1237 (104) -0.1118 (105)  0.2070 (109)  0.1207 (111)  0.2375 (112)
           0.1282 (114) -0.2192 (115) -0.2422 (119)  0.1687 (120) -0.2658 (122)
 CRD 52=   0.1590 ( 10) -0.1371 ( 13)  0.1844 ( 23) -0.1147 ( 25)  0.3057 ( 36)
          -0.1127 ( 45)  0.1003 ( 46) -0.1154 ( 54) -0.1655 ( 61)  0.1353 ( 65)
           0.2436 ( 66) -0.1058 ( 71)  0.1784 ( 76) -0.1189 ( 81)  0.1478 ( 83)
           0.1176 ( 85) -0.1602 ( 89)  0.1489 ( 90) -0.1760 ( 95) -0.2668 ( 96)
           0.1495 ( 98) -0.1070 (101) -0.1324 (104)  0.1531 (112) -0.1920 (115)
          -0.2264 (121)  0.2297 (122)
 CRD 53=   0.1721 (  4)  0.1074 ( 13)  0.1668 ( 30)  0.1145 ( 31) -0.1067 ( 36)
          -0.1316 ( 59)  0.1829 ( 64)  0.1944 ( 65)  0.1318 ( 71)  0.1018 ( 74)
          -0.1010 ( 76) -0.2371 ( 79) -0.1955 ( 80) -0.1089 ( 81)  0.1701 ( 83)
          -0.1297 ( 85) -0.2089 ( 88) -0.1772 ( 92)  0.1629 ( 95) -0.1425 (100)
          -0.1583 (109)  0.1468 (110)  0.2857 (111) -0.2595 (112)  0.1231 (114)
          -0.2312 (115) -0.1362 (119)  0.1510 (122)
 CRD 54=  -0.1694 ( 10) -0.1398 ( 13) -0.1496 ( 23) -0.1999 ( 30)  0.1226 ( 32)
          -0.2291 ( 36) -0.1341 ( 39)  0.1844 ( 43) -0.1336 ( 51)  0.1101 ( 61)
           0.1976 ( 66) -0.1450 ( 75) -0.1045 ( 76)  0.1693 ( 83) -0.1403 ( 85)
           0.1382 ( 88)  0.2199 ( 90) -0.1604 ( 92)  0.2073 ( 95) -0.2364 ( 96)
           0.1025 (105) -0.1882 (109)  0.1610 (110)  0.1555 (112)  0.1093 (115)
          -0.1558 (121)  0.2422 (122)

 THE DETERMINANT OF THE G MATRIX IS 10**(   -20)


                     --------------------
                     INTERNAL COORDINATES
                     --------------------

                 - - ATOMS - -         COORDINATE      COORDINATE
 NO.   TYPE    I  J  K  L  M  N        (BOHR,RAD)       (ANG,DEG)
 ----------------------------------------------------------------
   1 STRETCH   1  6                     3.7857160       2.0033148
   2 STRETCH   3  4                     3.7765473       1.9984629
   3 STRETCH   1  2                     2.6155190       1.3840731
   4 STRETCH   1 12                     2.0875525       1.1046853
   5 STRETCH   1 11                     2.1029434       1.1128298
   6 STRETCH   2 13                     2.0792829       1.1003092
   7 STRETCH   2  3                     2.7471809       1.4537456
   8 STRETCH   3 14                     2.0641323       1.0922918
   9 STRETCH   3 15                     2.0494781       1.0845372
  10 STRETCH   4  9                     2.8309202       1.4980586
  11 STRETCH   4  5                     2.8371242       1.5013416
  12 STRETCH   4 16                     2.0395029       1.0792586
  13 STRETCH   5  6                     2.5664416       1.3581025
  14 STRETCH   5 17                     2.0667405       1.0936721
  15 STRETCH   6  7                     3.0668488       1.6229066
  16 STRETCH   6 18                     2.1379915       1.1313764
  17 STRETCH   7  8                     2.5477959       1.3482356
  18 STRETCH   7 19                     2.0945072       1.1083656
  19 STRETCH   8 20                     2.0554065       1.0876743
  20 STRETCH   8  9                     2.7803880       1.4713181
  21 STRETCH   9 10                     2.3200572       1.2277215
  22 BEND      1  2 13                  2.2334985     127.9700352
  23 BEND      1  6  7                  2.3287958     133.4301728
  24 BEND      1  6  5                  1.5816595      90.6224150
  25 BEND      1  6 18                  2.0672219     118.4430906
  26 BEND      1  2  3                  1.9654515     112.6120763
  27 BEND      2  1 12                  1.9502382     111.7404170
  28 BEND      2  1 11                  1.6697421      95.6691765
  29 BEND      2  3 15                  2.1270806     121.8727420
  30 BEND      2  3  4                  1.6668769      95.5050115
  31 BEND      2  1  6                  1.9978988     114.4711673
  32 BEND      2  3 14                  1.9189624     109.9484452
  33 BEND      3  2 13                  2.0155700     115.4836555
  34 BEND      3  4 16                  1.8116089     103.7975414
  35 BEND      3  4  5                  1.8825451     107.8618901
  36 BEND      3  4  9                  1.6737001      95.8959547
  37 BEND      4  5 17                  2.0989789     120.2626300
  38 BEND      4  5  6                  1.9801248     113.4527920
  39 BEND      4  9 10                  2.1284147     121.9491765
  40 BEND      4  9  8                  2.0488955     117.3930656
  41 BEND      4  3 15                  1.7998174     103.1219425
  42 BEND      4  3 14                  1.8753341     107.4487283
  43 BEND      5  6  7                  1.8403394     105.4436815
  44 BEND      5  4 16                  1.9538658     111.9482651
  45 BEND      5  4  9                  2.0474224     117.3086599
  46 BEND      5  6 18                  1.8540055     106.2266908
  47 BEND      6  5 17                  1.9655604     112.6183126
  48 BEND      6  1 12                  1.6163269      92.6087119
  49 BEND      6  1 11                  2.3354168     133.8095288
  50 BEND      6  7 19                  2.1213329     121.5434202
  51 BEND      6  7  8                  2.1508563     123.2349890
  52 BEND      7  8 20                  2.2137633     126.8392915
  53 BEND      7  8  9                  2.0410511     116.9436130
  54 BEND      7  6 18                  1.7256521      98.8725837
  55 BEND      8  9 10                  2.1037329     120.5350148
  56 BEND      8  7 19                  1.9988249     114.5242328
  57 BEND      9  4 16                  2.0454096     117.1933375
  58 BEND      9  8 20                  2.0275306     116.1689438
  59 BEND     11  1 12                  1.8910170     108.3472956
  60 BEND     14  3 15                  2.0168081     115.5545917
  61 TORSION   1  6  5 17               1.0931087      62.6305162
  62 TORSION   1  6  5  4              -1.3657790     -78.2533702
  63 TORSION   1  2  3 15               3.1343798     179.5867359
  64 TORSION   1  2  3  4              -1.2432979     -71.2357205
  65 TORSION   1  2  3 14               0.6908940      39.5853127
  66 TORSION   1  6  7  8               1.1034604      63.2236257
  67 TORSION   1  6  7 19              -2.2143735    -126.8742537
  68 TORSION   2  3  4  9               2.5373528     145.3796061
  69 TORSION   2  1  6 18               2.3827245     136.5200590
  70 TORSION   2  1  6  5               0.4822875      27.6330380
  71 TORSION   2  1  6  7              -1.4750535     -84.5143427
  72 TORSION   2  3  4 16              -1.6532422     -94.7238034
  73 TORSION   2  3  4  5               0.4222088      24.1907802
  74 TORSION   3  4  9 10               1.2337471      70.6885027
  75 TORSION   3  4  9  8              -1.8378646    -105.3018830
  76 TORSION   3  4  5 17              -1.3456754     -77.1015207
  77 TORSION   3  4  5  6               1.0559622      60.5021757
  78 TORSION   3  2  1 11              -2.8400824    -162.7247348
  79 TORSION   3  2  1  6               0.9289983      53.2276808
  80 TORSION   3  2  1 12              -0.8793479     -50.3829247
  81 TORSION   4  3  2 13               1.5409596      88.2904786
  82 TORSION   4  9  8 20              -2.9579585    -169.4785366
  83 TORSION   4  9  8  7               0.1426338       8.1723159
  84 TORSION   4  5  6 18               2.8238918     161.7970796
  85 TORSION   4  5  6  7               1.0034539      57.4936739
  86 TORSION   5  4  3 15               2.5960712     148.7439233
  87 TORSION   5  4  3 14              -1.5487637     -88.7376237
  88 TORSION   5  6  1 11              -1.7158404     -98.3104149
  89 TORSION   5  6  7 19               2.2172966     127.0417366
  90 TORSION   5  6  7  8              -0.7480548     -42.8603841
  91 TORSION   5  6  1 12               2.4954927     142.9811988
  92 TORSION   5  4  9  8               0.1448337       8.2983596
  93 TORSION   5  4  9 10              -3.0667399    -175.7112547
  94 TORSION   6  5  4 16               3.0382878     174.0810675
  95 TORSION   6  5  4  9              -0.8068177     -46.2272498
  96 TORSION   6  7  8  9               0.1503818       8.6162407
  97 TORSION   6  7  8 20              -3.0371929    -174.0183372
  98 TORSION   6  1  2 13              -1.8005026    -103.1612028
  99 TORSION   7  8  9 10              -2.9300196    -167.8777564
 100 TORSION   7  6  1 11               2.6100038     149.5422044
 101 TORSION   7  6  1 12               0.5381516      30.8338181
 102 TORSION   7  6  5 17              -2.8208437    -161.6224398
 103 TORSION   8  7  6 18              -2.6620955    -152.5268377
 104 TORSION   8  9  4 16               2.5460370     145.8771736
 105 TORSION   9  4  5 17               3.0747300     176.1690538
 106 TORSION   9  8  7 19              -2.8262223    -161.9306107
 107 TORSION   9  4  3 15              -1.5719701     -90.0672507
 108 TORSION   9  4  3 14               0.5663803      32.4512023
 109 TORSION  10  9  8 20               0.2525734      14.4713911
 110 TORSION  10  9  4 16              -0.6655366     -38.1324407
 111 TORSION  11  1  2 13               0.7136020      40.8863817
 112 TORSION  11  1  6 18               0.1845966      10.5766060
 113 TORSION  12  1  6 18              -1.8872556    -108.1317802
 114 TORSION  12  1  2 13               2.6743365     153.2281918
 115 TORSION  13  2  3 15              -0.3645481     -20.8870649
 116 TORSION  13  2  3 14              -2.8080338    -160.8884881
 117 TORSION  14  3  4 16               2.6589706     152.3477928
 118 TORSION  15  3  4 16               0.5206202      29.8293398
 119 TORSION  16  4  5 17               0.6366502      36.4773711
 120 TORSION  17  5  6 18              -1.0004059     -57.3190341
 121 TORSION  18  6  7 19               0.3032559      17.3752829
 122 TORSION  19  7  8 20               0.2693883      15.4348114

     ------------------------------------------
     THE POINT GROUP IS C1 , NAXIS= 0, ORDER= 1
     ------------------------------------------

     DIMENSIONS OF THE SYMMETRY SUBSPACES ARE
 A   =   60

 ..... DONE SETTING UP THE RUN .....
 STEP CPU TIME =     0.07 TOTAL CPU TIME =          0.1 (      0.0 MIN)
 TOTAL WALL CLOCK TIME=          0.1 SECONDS, CPU UTILIZATION IS    77.78%


          -----------------------------
          STATIONARY POINT LOCATION RUN
          -----------------------------


           ** GEOMETRY CONSTRAINTS ARE BEING APPLIED. **

          TRANSFORMING DISPLACEMENT FROM INTERNALS TO CARTESIANS
          THE ROOT MEAN SQUARE ERROR IN ITERATION   1 IS   0.00000145
          THE ROOT MEAN SQUARE ERROR IN ITERATION   2 IS   0.00000000
 WARNING! THE RADIUS IN CARTESIANS IS    0.01069
 OBTAINING INITIAL HESSIAN, HESS=CALC    

     ---------------------------------
     HESSIAN MATRIX CONTROL PARAMETERS
     ---------------------------------
     METHOD=ANALYTIC   NVIB  =       2   VIBSIZ= 0.01000
     RDHESS=       F   PURIFY=       F   PRTIFC=       F
     VIBANL=       F   DECOMP=       F   PROJCT=       F
     SCLFAC= 1.00000   PRTSCN=       F   NPRT  =       0
     PULCOR=       F   NPUN  =       0   REDOVB=       T
     HSSTYP=GENERAL 
 Old integral subroutine is used

     ------------------------------
     CPHF RESPONSE SOLUTION OPTIONS
     ------------------------------
     POLAR  =       F     NWORD  =       0
     CPHF   =AO      

          ********************
          1 ELECTRON INTEGRALS
          ********************
 ...... END OF ONE-ELECTRON INTEGRALS ......
 STEP CPU TIME =     0.04 TOTAL CPU TIME =          0.1 (      0.0 MIN)
 TOTAL WALL CLOCK TIME=          0.1 SECONDS, CPU UTILIZATION IS    84.62%

          -------------
          GUESS OPTIONS
          -------------
          GUESS =HUCKEL            NORB  =       0          NORDER=       0
          MIX   =       F          PRTMO =       F          PUNMO =       F
          TOLZ  = 1.0E-08          TOLE  = 1.0E-05
          SYMDEN=       F          PURIFY=       F

 INITIAL GUESS ORBITALS GENERATED BY HUCKEL   ROUTINE.
 HUCKEL GUESS REQUIRES     53820 WORDS.

 SYMMETRIES FOR INITIAL GUESS ORBITALS FOLLOW.   BOTH SET(S).
    36 ORBITALS ARE OCCUPIED (   10 CORE ORBITALS).
    11=A       12=A       13=A       14=A       15=A       16=A       17=A   
    18=A       19=A       20=A       21=A       22=A       23=A       24=A   
    25=A       26=A       27=A       28=A       29=A       30=A       31=A   
    32=A       33=A       34=A       35=A       36=A       37=A       38=A   
    39=A       40=A       41=A       42=A       43=A       44=A       45=A   
    46=A   
 ...... END OF INITIAL ORBITAL SELECTION ......
 STEP CPU TIME =     0.03 TOTAL CPU TIME =          0.1 (      0.0 MIN)
 TOTAL WALL CLOCK TIME=          0.1 SECONDS, CPU UTILIZATION IS    93.33%

                    ----------------------
                    AO INTEGRAL TECHNOLOGY
                    ----------------------
     S,P,L SHELL ROTATED AXIS INTEGRALS, REPROGRAMMED BY
        KAZUYA ISHIMURA (IMS) AND JOSE SIERRA (SYNSTAR).
     S,P,D,L SHELL ROTATED AXIS INTEGRALS PROGRAMMED BY
        KAZUYA ISHIMURA (INSTITUTE FOR MOLECULAR SCIENCE).
     S,P,D,F,G SHELL TO TOTAL QUARTET ANGULAR MOMENTUM SUM 5,
        ERIC PROGRAM BY GRAHAM FLETCHER (ELORET AND NASA ADVANCED
        SUPERCOMPUTING DIVISION, AMES RESEARCH CENTER).
     S,P,D,F,G,L SHELL GENERAL RYS QUADRATURE PROGRAMMED BY
        MICHEL DUPUIS (PACIFIC NORTHWEST NATIONAL LABORATORY).

          --------------------
          2 ELECTRON INTEGRALS
          --------------------

 THE -PK- OPTION IS OFF, THE INTEGRALS ARE NOT IN SUPERMATRIX FORM.
 STORING   15000 INTEGRALS/RECORD ON DISK, USING 12 BYTES/INTEGRAL.
 TWO ELECTRON INTEGRAL EVALUATION REQUIRES   89821 WORDS OF MEMORY.
 SCHWARZ INEQUALITY OVERHEAD:      1800 INTEGRALS, T=        0.00
 II,JST,KST,LST =  1  1  1  1 NREC =         1 INTLOC =    1
 II,JST,KST,LST =  2  1  1  1 NREC =         1 INTLOC =    2
 II,JST,KST,LST =  3  1  1  1 NREC =         1 INTLOC =   34
 II,JST,KST,LST =  4  1  1  1 NREC =         1 INTLOC =  144
 II,JST,KST,LST =  5  1  1  1 NREC =         1 INTLOC = 1366
 II,JST,KST,LST =  6  1  1  1 NREC =         1 INTLOC = 1953
 II,JST,KST,LST =  7  1  1  1 NREC =         1 INTLOC = 6843
 II,JST,KST,LST =  8  1  1  1 NREC =         1 INTLOC = 8461
 II,JST,KST,LST =  9  1  1  1 NREC =         2 INTLOC = 5890
 II,JST,KST,LST = 10  1  1  1 NREC =         2 INTLOC = 9634
 II,JST,KST,LST = 11  1  1  1 NREC =         4 INTLOC = 4954
 II,JST,KST,LST = 12  1  1  1 NREC =         4 INTLOC =12078
 II,JST,KST,LST = 13  1  1  1 NREC =         7 INTLOC =12161
 II,JST,KST,LST = 14  1  1  1 NREC =         8 INTLOC = 7903
 II,JST,KST,LST = 15  1  1  1 NREC =        13 INTLOC = 4265
 II,JST,KST,LST = 16  1  1  1 NREC =        14 INTLOC = 4976
 II,JST,KST,LST = 17  1  1  1 NREC =        21 INTLOC = 5539
 II,JST,KST,LST = 18  1  1  1 NREC =        23 INTLOC = 1349
 II,JST,KST,LST = 19  1  1  1 NREC =        33 INTLOC = 7801
 II,JST,KST,LST = 20  1  1  1 NREC =        35 INTLOC = 4396
 II,JST,KST,LST = 21  1  1  1 NREC =        47 INTLOC = 9730
 II,JST,KST,LST = 22  1  1  1 NREC =        51 INTLOC = 4009
 II,JST,KST,LST = 23  1  1  1 NREC =        55 INTLOC = 7631
 II,JST,KST,LST = 24  1  1  1 NREC =        59 INTLOC =11112
 II,JST,KST,LST = 25  1  1  1 NREC =        64 INTLOC = 9701
 II,JST,KST,LST = 26  1  1  1 NREC =        69 INTLOC =10194
 II,JST,KST,LST = 27  1  1  1 NREC =        75 INTLOC = 2181
 II,JST,KST,LST = 28  1  1  1 NREC =        80 INTLOC =12058
 II,JST,KST,LST = 29  1  1  1 NREC =        86 INTLOC = 9579
 II,JST,KST,LST = 30  1  1  1 NREC =        92 INTLOC = 9328
 SCHWARZ INEQUALITY TEST SKIPPED       26095 INTEGRAL BLOCKS.
 TOTAL NUMBER OF NONZERO TWO-ELECTRON INTEGRALS =             1468335
         98 INTEGRAL RECORDS WERE STORED ON DISK FILE  8.
  ...... END OF TWO-ELECTRON INTEGRALS .....
 STEP CPU TIME =     0.32 TOTAL CPU TIME =          0.5 (      0.0 MIN)
 TOTAL WALL CLOCK TIME=          0.5 SECONDS, CPU UTILIZATION IS    93.88%

          --------------------------
                 RHF SCF CALCULATION
          --------------------------

     NUCLEAR ENERGY =       505.7986225723
     MAXIT =   30     NPUNCH=    2
     EXTRAP=T  DAMP=F  SHIFT=F  RSTRCT=F  DIIS=F  DEM=F  SOSCF=T
     DENSITY MATRIX CONV=  1.00E-05
     SOSCF WILL OPTIMIZE     864 ORBITAL ROTATIONS, SOGTOL=   0.250
     MEMORY REQUIRED FOR RHF ITERS=     59496 WORDS.

 ITER EX DEM     TOTAL ENERGY        E CHANGE  DENSITY CHANGE     ORB. GRAD
   1  0  0     -415.3022095651  -415.3022095651   0.522936547   0.000000000
          ---------------START SECOND ORDER SCF---------------
   2  1  0     -415.8520598903    -0.5498503251   0.285498718   0.067661386
   3  2  0     -415.8865294599    -0.0344695696   0.129461821   0.056946756
   4  3  0     -415.9283155270    -0.0417860671   0.036586673   0.011123372
   5  4  0     -415.9299844264    -0.0016688994   0.013161973   0.006719629
   6  5  0     -415.9303632126    -0.0003787862   0.003294645   0.001039362
   7  6  0     -415.9304043187    -0.0000411062   0.001973821   0.000377872
   8  7  0     -415.9304110586    -0.0000067399   0.000779306   0.000138432
   9  8  0     -415.9304120181    -0.0000009595   0.000392902   0.000090419
  10  9  0     -415.9304122557    -0.0000002376   0.000139154   0.000019105
  11 10  0     -415.9304122850    -0.0000000293   0.000055063   0.000010658
  12 11  0     -415.9304122888    -0.0000000039   0.000009961   0.000003016
  13 12  0     -415.9304122893    -0.0000000005   0.000005757   0.000000970

          -----------------
          DENSITY CONVERGED
          -----------------
     TIME TO FORM FOCK OPERATORS=       0.3 SECONDS (       0.0 SEC/ITER)
     TIME TO SOLVE SCF EQUATIONS=       0.1 SECONDS (       0.0 SEC/ITER)

 FINAL RHF ENERGY IS     -415.9304122893 AFTER  13 ITERATIONS

          ------------
          EIGENVECTORS
          ------------

                      1          2          3          4          5
                  -20.2466   -11.1092   -11.0590   -11.0541   -11.0464
                     A          A          A          A          A   
    1  C  1  S   -0.000000   0.000038  -0.006171  -0.001594  -0.000152
    2  C  1  S    0.000003   0.000003  -0.002416  -0.000015  -0.000034
    3  C  1  X    0.000001   0.000010  -0.002243  -0.000071  -0.000078
    4  C  1  Y   -0.000000   0.000031  -0.000868  -0.000241   0.000086
    5  C  1  Z    0.000002   0.000005  -0.000317  -0.000073  -0.000053
    6  C  2  S    0.000001  -0.000003   0.000085   0.001035   0.000023
    7  C  2  S   -0.000004  -0.000089   0.000206  -0.006154   0.000005
    8  C  2  X   -0.000007   0.000058   0.000232   0.000197   0.000008
    9  C  2  Y   -0.000004  -0.000042   0.000084  -0.004023  -0.000003
   10  C  2  Z    0.000002  -0.000057   0.000043  -0.001533   0.000002
   11  C  3  S   -0.000013  -0.000981  -0.000843   0.992151  -0.000576
   12  C  3  S    0.000075  -0.000094  -0.000035   0.035255   0.000022
   13  C  3  X    0.000030  -0.000345  -0.000069  -0.000945   0.000014
   14  C  3  Y    0.000048  -0.000426   0.000054  -0.000431   0.000013
   15  C  3  Z    0.000007  -0.000125   0.000027  -0.000926  -0.000019
   16  C  4  S   -0.000020  -0.001160  -0.002302  -0.015801  -0.003547
   17  C  4  S    0.000269  -0.005772  -0.000092  -0.003119  -0.000111
   18  C  4  X   -0.000200  -0.000941  -0.000001   0.002230  -0.000090
   19  C  4  Y    0.000276  -0.004014  -0.000073  -0.000114  -0.000085
   20  C  4  Z    0.000301   0.000683   0.000320   0.000932   0.000139
   21  C  5  S    0.000004  -0.000227   0.008788   0.000009  -0.003167
   22  C  5  S    0.000021   0.000110  -0.007439   0.000261  -0.000287
   23  C  5  X   -0.000047  -0.000020  -0.000561  -0.000200  -0.000247
   24  C  5  Y   -0.000049   0.000011  -0.000821   0.000082  -0.000387
   25  C  5  Z    0.000037  -0.000008   0.004775   0.000018   0.000098
   26  C  6  S    0.000001  -0.000343   0.992045   0.000810   0.017243
   27  C  6  S    0.000016  -0.000059   0.035349   0.000003  -0.003763
   28  C  6  X    0.000022   0.000034   0.002757   0.000059  -0.001533
   29  C  6  Y   -0.000015  -0.000087  -0.000440  -0.000025  -0.003301
   30  C  6  Z   -0.000009  -0.000060   0.003853  -0.000028   0.000278
   31  C  7  S    0.000008  -0.000525  -0.016245   0.000491   0.992200
   32  C  7  S    0.000009   0.000093  -0.005458   0.000029   0.034258
   33  C  7  X    0.000051   0.000059   0.001811  -0.000020   0.000429
   34  C  7  Y    0.000061   0.000023   0.003478  -0.000003   0.002059
   35  C  7  Z   -0.000048  -0.000036  -0.000455   0.000012   0.001306
   36  C  8  S   -0.000026  -0.000529  -0.000376   0.000193   0.012643
   37  C  8  S    0.000363  -0.006151   0.000279   0.000025  -0.007225
   38  C  8  X   -0.000149   0.002679  -0.000111  -0.000074  -0.001154
   39  C  8  Y    0.000428   0.000587  -0.000238   0.000009   0.003534
   40  C  8  Z    0.000208  -0.003274   0.000080  -0.000026   0.002634
   41  C  9  S    0.000558   0.992461   0.000363   0.001076   0.000617
   42  C  9  S   -0.007194   0.033570  -0.000037   0.000024   0.000125
   43  C  9  X    0.002657  -0.000227  -0.000038   0.000255  -0.000058
   44  C  9  Y   -0.004825   0.000283   0.000023  -0.000177   0.000198
   45  C  9  Z   -0.003140  -0.000233   0.000148   0.000077   0.000124
   46  O 10  S    0.994266   0.000179   0.000003  -0.000014   0.000015
   47  O 10  S    0.025955  -0.005848  -0.000036   0.000121  -0.000141
   48  O 10  X    0.002330  -0.000738  -0.000015   0.000033  -0.000051
   49  O 10  Y   -0.004224   0.001360   0.000022  -0.000061   0.000043
   50  O 10  Z   -0.002769   0.000922  -0.000003  -0.000042   0.000040
   51  H 11  S   -0.000000   0.000008  -0.000127  -0.000148   0.000016
   52  H 12  S   -0.000001   0.000012  -0.000116   0.000073  -0.000092
   53  H 13  S    0.000000   0.000008   0.000004   0.000044  -0.000001
   54  H 14  S    0.000015  -0.000463  -0.000057  -0.006878  -0.000051
   55  H 15  S   -0.000064  -0.000024  -0.000019  -0.006779   0.000002
   56  H 16  S   -0.000126  -0.000021  -0.000139   0.000205  -0.000040
   57  H 17  S   -0.000023  -0.000053   0.000017   0.000001  -0.000146
   58  H 18  S   -0.000008  -0.000023  -0.006695  -0.000024  -0.000271
   59  H 19  S   -0.000021  -0.000081   0.000186   0.000002  -0.006676
   60  H 20  S   -0.000206   0.000004   0.000007   0.000001   0.000078

                      6          7          8          9         10
                  -11.0381   -11.0241   -11.0221   -11.0186   -11.0026
                     A          A          A          A          A   
    1  C  1  S   -0.000323  -0.048617   0.990871  -0.000225  -0.010474
    2  C  1  S    0.000078  -0.002138   0.036170  -0.000000  -0.007232
    3  C  1  X   -0.000047  -0.000164  -0.004379  -0.000001   0.002639
    4  C  1  Y   -0.000062  -0.000057   0.000426   0.000004  -0.000656
    5  C  1  Z    0.000016  -0.000692   0.000458  -0.000004  -0.003778
    6  C  2  S   -0.001642  -0.005634   0.010872  -0.000033   0.992097
    7  C  2  S   -0.000220  -0.000192  -0.007081  -0.000002   0.036113
    8  C  2  X   -0.000250  -0.000369  -0.002919  -0.000002   0.002200
    9  C  2  Y    0.000003  -0.000114   0.000303  -0.000001   0.000999
   10  C  2  Z   -0.000108  -0.000494   0.003823   0.000001   0.000113
   11  C  3  S    0.016639  -0.000042   0.001704  -0.000184  -0.000184
   12  C  3  S   -0.001946   0.000228   0.000149   0.000059  -0.006476
   13  C  3  X   -0.002262   0.000038  -0.000235   0.000007  -0.000022
   14  C  3  Y    0.000126  -0.000089   0.000010   0.000042   0.004242
   15  C  3  Z   -0.000949   0.000022   0.000226  -0.000037   0.001566
   16  C  4  S    0.992074   0.004484   0.000523   0.001338   0.001814
   17  C  4  S    0.035168  -0.005741  -0.000196   0.000183  -0.000118
   18  C  4  X    0.001509  -0.002030  -0.000075  -0.000001   0.000250
   19  C  4  Y    0.000216   0.003036   0.000091   0.000052   0.000420
   20  C  4  Z    0.000624   0.002209   0.000149   0.000018   0.000151
   21  C  5  S   -0.003582   0.990902   0.048956   0.004198   0.005293
   22  C  5  S   -0.006014   0.036095   0.001588   0.000062  -0.000217
   23  C  5  X    0.002088  -0.002566   0.000373  -0.000046   0.000617
   24  C  5  Y   -0.003051   0.000012   0.000068  -0.000154   0.000044
   25  C  5  Z   -0.002096  -0.002858   0.000018   0.000012   0.000172
   26  C  6  S    0.002518  -0.008489   0.006506   0.000130  -0.000235
   27  C  6  S    0.000196  -0.007694  -0.002253   0.000232   0.000234
   28  C  6  X    0.000157   0.000334   0.002207   0.000114  -0.000157
   29  C  6  Y   -0.000142   0.000854   0.000888   0.000103  -0.000071
   30  C  6  Z   -0.000004  -0.004803   0.000038  -0.000005   0.000060
   31  C  7  S    0.003572   0.003552   0.000225  -0.012005   0.000002
   32  C  7  S    0.000031  -0.000015  -0.000109  -0.008068  -0.000003
   33  C  7  X    0.000145   0.000005  -0.000118   0.001125  -0.000008
   34  C  7  Y    0.000017   0.000087   0.000159  -0.003600  -0.000001
   35  C  7  Z   -0.000154  -0.000466  -0.000087  -0.002708  -0.000009
   36  C  8  S   -0.001230  -0.004125   0.000020   0.992075   0.000007
   37  C  8  S    0.000102  -0.000142  -0.000017   0.036427  -0.000003
   38  C  8  X    0.000008   0.000030   0.000001  -0.000098   0.000003
   39  C  8  Y   -0.000004   0.000084   0.000002  -0.001561  -0.000003
   40  C  8  Z    0.000010  -0.000103   0.000020  -0.000137  -0.000004
   41  C  9  S    0.002140   0.000271  -0.000027   0.001499   0.000014
   42  C  9  S   -0.006060   0.000138   0.000023  -0.006504  -0.000085
   43  C  9  X    0.000871  -0.000019  -0.000021  -0.002730  -0.000020
   44  C  9  Y    0.004095   0.000023  -0.000015  -0.000803   0.000053
   45  C  9  Z   -0.001025  -0.000053  -0.000016   0.003345  -0.000073
   46  O 10  S   -0.000017   0.000008   0.000001  -0.000020   0.000001
   47  O 10  S    0.000249  -0.000060  -0.000003   0.000312  -0.000001
   48  O 10  X    0.000004   0.000008   0.000001   0.000138   0.000014
   49  O 10  Y   -0.000192   0.000036   0.000003  -0.000050   0.000000
   50  O 10  Z    0.000021   0.000007   0.000001  -0.000144   0.000008
   51  H 11  S   -0.000037   0.000313  -0.006839   0.000001  -0.000527
   52  H 12  S    0.000002   0.000272  -0.006928  -0.000005  -0.000016
   53  H 13  S    0.000024   0.000120   0.000046   0.000001  -0.006674
   54  H 14  S   -0.000019   0.000013  -0.000078  -0.000107  -0.000008
   55  H 15  S   -0.000023  -0.000045  -0.000170  -0.000010   0.000087
   56  H 16  S   -0.007035  -0.000019  -0.000023  -0.000058  -0.000000
   57  H 17  S    0.000089  -0.006897  -0.000615  -0.000072  -0.000237
   58  H 18  S   -0.000157  -0.000119  -0.000083  -0.000058  -0.000021
   59  H 19  S   -0.000083  -0.000080   0.000017   0.000074   0.000003
   60  H 20  S   -0.000059  -0.000012   0.000002  -0.006747   0.000001

                     11         12         13         14         15
                   -1.3047    -1.0866    -1.0200    -0.9619    -0.9280
                     A          A          A          A          A   
    1  C  1  S   -0.000818  -0.062283  -0.111367  -0.031522   0.088083
    2  C  1  S    0.001899   0.164036   0.298372   0.084564  -0.251399
    3  C  1  X   -0.000028  -0.011120  -0.075333  -0.053636   0.021940
    4  C  1  Y    0.000367   0.014431   0.013657   0.002583   0.002175
    5  C  1  Z    0.000491   0.031428   0.059572   0.017993  -0.006495
    6  C  2  S   -0.001338  -0.063852  -0.141660  -0.061624   0.024254
    7  C  2  S    0.003047   0.159518   0.366449   0.164163  -0.062883
    8  C  2  X    0.000779   0.031224   0.047302   0.005784  -0.031626
    9  C  2  Y    0.001114   0.020543   0.040405   0.022564   0.050783
   10  C  2  Z    0.000360  -0.014804  -0.033192  -0.009551   0.072406
   11  C  3  S   -0.004327  -0.052138  -0.101768  -0.050467  -0.071035
   12  C  3  S    0.010852   0.140629   0.278172   0.140704   0.209550
   13  C  3  X    0.002854   0.016447  -0.003986  -0.014147   0.021601
   14  C  3  Y    0.001878  -0.025374  -0.061219  -0.024724   0.018370
   15  C  3  Z    0.000947  -0.012405  -0.036681  -0.022367   0.024853
   16  C  4  S   -0.023588  -0.084776   0.002683   0.040979  -0.151681
   17  C  4  S    0.058900   0.225978  -0.004512  -0.114460   0.436541
   18  C  4  X    0.006661   0.025447  -0.036820  -0.030439   0.011063
   19  C  4  Y    0.029363  -0.016450  -0.012552   0.059509   0.039846
   20  C  4  Z   -0.005040  -0.039507   0.005107   0.010546   0.007274
   21  C  5  S   -0.005372  -0.120727   0.022787   0.123377  -0.006876
   22  C  5  S    0.012632   0.306960  -0.058858  -0.334213   0.026474
   23  C  5  X   -0.002309  -0.023438  -0.018181   0.015613  -0.050687
   24  C  5  Y    0.004803   0.040052  -0.018525  -0.001098   0.057655
   25  C  5  Z    0.000539  -0.062152   0.022208   0.065261   0.117406
   26  C  6  S   -0.003391  -0.117052   0.038187   0.087284   0.091855
   27  C  6  S    0.008272   0.311871  -0.104264  -0.237795  -0.268860
   28  C  6  X    0.000205   0.005804  -0.040641  -0.000909  -0.026897
   29  C  6  Y    0.001768   0.010313  -0.033371   0.059086   0.006976
   30  C  6  Z    0.002706   0.082437  -0.020989  -0.100632  -0.004579
   31  C  7  S   -0.006676  -0.082706   0.089421  -0.092600   0.062368
   32  C  7  S    0.016046   0.214899  -0.239488   0.254053  -0.177638
[...]
 19   H            X -0.00010100 -0.00032955 -0.00045716 -0.05596567 -0.01329058
                   Y -0.06659325  0.00263099  0.02084350 -0.15111536 -0.02937251
                   Z  0.00580814  0.00023100  0.00799184  0.08759828  0.02050459
 20   H            X  0.00115661 -0.00037803  0.00000385 -0.04672712 -0.04191686
                   Y  0.01753156  0.00006144 -0.00993969 -0.07111059  0.00868701
                   Z -0.00574179 -0.00059283  0.01782163  0.11008600  0.09024130

 TRANS. SAYVETZ    X -0.00000172 -0.00000002 -0.00000216 -0.00000145 -0.00000286
                   Y  0.00000167  0.00000092  0.00000041 -0.00000101  0.00000209
                   Z  0.00000111  0.00000149 -0.00000065 -0.00000040  0.00000184
               TOTAL  0.00000264  0.00000175  0.00000229  0.00000181  0.00000399

   ROT. SAYVETZ    X -0.00083530 -0.00241498 -0.00129897  0.00034045  0.00054926
                   Y  0.00562310  0.00139582 -0.01252534  0.00155222  0.00083452
                   Z  0.00032307  0.00447244  0.00598902 -0.00119191 -0.00136596
               TOTAL  0.00569398  0.00527097  0.01394417  0.00198644  0.00169233

                           51          52          53          54          55
       FREQUENCY:      3634.34     3638.71     3689.50     3697.31     3699.05  
        SYMMETRY:         A           A           A           A           A   
    REDUCED MASS:      1.06235     1.06453     1.09084     1.09393     1.09619
    IR INTENSITY:      0.02523     0.10648     0.12794     0.07685     0.09946

  1   C            X  0.01066072  0.00651412 -0.00185308  0.00009914  0.00378741
                   Y -0.00169150 -0.00078008 -0.00107935  0.00118791  0.00444427
                   Z -0.05531377 -0.03785807  0.00599231 -0.00183040 -0.01005950
  2   C            X -0.00005715 -0.00302862  0.00430850 -0.00355655 -0.02194366
                   Y  0.00951196  0.00148892  0.01391559 -0.01227047 -0.07226325
                   Z -0.00327536  0.00678488 -0.00545251  0.00438082  0.02810934
  3   C            X -0.01805100  0.02891518  0.00203825 -0.00062172 -0.00187828
                   Y  0.02825079 -0.04431746 -0.00578458  0.00269697  0.01114416
                   Z  0.01512050 -0.02251728 -0.00150772  0.00169934  0.00174361
  4   C            X  0.00060770 -0.00109762  0.01285699  0.01240028  0.00212145
                   Y  0.00060845  0.00056362  0.00551771  0.00267712  0.00017893
                   Z -0.00340796  0.00063560 -0.05546233 -0.05104297 -0.00667736
  5   C            X  0.00008536  0.00021063  0.00068188 -0.00232681  0.00032057
                   Y -0.00347996  0.00051888 -0.03874548  0.00926245 -0.00252644
                   Z  0.00158002 -0.00084534  0.02001201  0.00049048  0.00077231
  6   C            X -0.00157552  0.00089653 -0.01776258  0.02846788 -0.00881122
                   Y  0.00255165 -0.00068904  0.02761146 -0.04108671  0.01296107
                   Z  0.00157627  0.00068203  0.01541661 -0.02655567  0.00921078
  7   C            X  0.00067515  0.00006162  0.00396411 -0.01124883  0.00518569
                   Y -0.00000028  0.00009011 -0.00064851  0.00051201  0.00004658
                   Z -0.00038778  0.00012019 -0.00856898  0.02384934 -0.01098036
  8   C            X -0.00007293  0.00002299 -0.00132472  0.00384966 -0.00169626
                   Y -0.00053787  0.00020072 -0.00382400  0.01233802 -0.00543650
                   Z  0.00021937  0.00002043  0.00190604 -0.00584808  0.00262738
  9   C            X  0.00026227 -0.00020016 -0.00043626 -0.00071307  0.00002676
                   Y -0.00021162 -0.00006227 -0.00108189 -0.00167844 -0.00000012
                   Z  0.00022809 -0.00011611  0.00059231  0.00119452 -0.00012492
 10   O            X -0.00001073 -0.00001987  0.00001525  0.00004329  0.00000730
                   Y  0.00002435  0.00001939  0.00006435  0.00026800  0.00000154
                   Z -0.00001003 -0.00000727 -0.00004456 -0.00007394  0.00002097
 11   H            X -0.06353413 -0.04272040  0.00687960 -0.00158048 -0.00630340
                   Y  0.48028521  0.32115417 -0.03793011  0.00772991  0.03321843
                   Z  0.30949120  0.20641619 -0.02422202  0.00524334  0.02183770
 12   H            X -0.02975204 -0.01912502  0.00505445 -0.00097019 -0.00359336
                   Y -0.46345812 -0.31312295  0.04957264 -0.01970304 -0.08162496
                   Z  0.29525583  0.20069876 -0.03029075  0.01218077  0.04969769
 13   H            X -0.03896166  0.00647940 -0.04216464  0.03731567  0.22330868
                   Y -0.14154868  0.02873164 -0.15421406  0.13533017  0.80980022
                   Z  0.05752836 -0.00892805  0.06207755 -0.05434050 -0.32517184
 14   H            X -0.00433647  0.00465657  0.00288618 -0.00070563 -0.00123527
                   Y -0.34002714  0.52729261  0.05723577 -0.02046979 -0.08750435
                   Z  0.14543561 -0.22517539 -0.02370113  0.00887840  0.04013286
 15   H            X  0.21459963 -0.32782130 -0.02269427  0.00879367  0.01848414
                   Y  0.03320085 -0.05124797 -0.00338812  0.00139343  0.00201944
                   Z -0.29816875  0.45626889  0.03444849 -0.01399536 -0.02850498
 16   H            X -0.00700533  0.00092144 -0.13846051 -0.12638066 -0.01710411
                   Y -0.00331191  0.00041255 -0.05143816 -0.04516118 -0.00589537
                   Z  0.04128143 -0.00562771  0.63359663  0.57281575  0.07420983
 17   H            X -0.00108140  0.00020562 -0.01764575  0.00362725 -0.00116991
                   Y  0.04093696 -0.00869928  0.45567664 -0.08254058  0.03155546
                   Z -0.02005194  0.00434516 -0.22512977  0.03907415 -0.01540786
 18   H            X  0.02170019 -0.00699647  0.21153081 -0.32469220  0.10192351
                   Y -0.02890357  0.00905745 -0.30686260  0.47072637 -0.14878084
                   Z -0.01686336  0.00506946 -0.18540162  0.28664884 -0.09134161
 19   H            X -0.00386168  0.00061557 -0.04594651  0.12873360 -0.05877623
                   Y -0.00086618 -0.00015008 -0.00582154  0.01648162 -0.00756799
                   Z  0.00863137 -0.00122683  0.09799626 -0.27211874  0.12443642
 20   H            X  0.00129268 -0.00042672  0.01087149 -0.03857235  0.01686856
                   Y  0.00654821 -0.00190177  0.04519240 -0.15416216  0.06737755
                   Z -0.00252257  0.00045264 -0.01632203  0.05573875 -0.02431367

 TRANS. SAYVETZ    X  0.00000021  0.00000064 -0.00000061  0.00000043  0.00000024
                   Y  0.00000024 -0.00000001 -0.00000079  0.00000062  0.00000007
                   Z -0.00000140  0.00000053 -0.00000031  0.00000031  0.00000038
               TOTAL  0.00000143  0.00000084  0.00000105  0.00000082  0.00000046

   ROT. SAYVETZ    X  0.00021282 -0.00018185 -0.00024496  0.00010833  0.00004233
                   Y -0.00033307 -0.00093042  0.00057198  0.00113522 -0.00013257
                   Z -0.00031398  0.00062325  0.00046122 -0.00050210 -0.00003726
               TOTAL  0.00050479  0.00113454  0.00077452  0.00124602  0.00014406

                           56          57          58          59          60
       FREQUENCY:      3704.98     3715.89     3736.10     3785.88     3787.66  
        SYMMETRY:         A           A           A           A           A   
    REDUCED MASS:      1.09180     1.10090     1.10598     1.11706     1.11747
    IR INTENSITY:      0.49434     0.07552     0.06450     0.00060     0.01705

  1   C            X -0.00064053 -0.00034265  0.00004236  0.00316622  0.00209551
                   Y  0.00035296  0.00155965 -0.00034865 -0.08020878 -0.04946030
                   Z  0.00085849 -0.00037656  0.00004960  0.00076125 -0.00010274
  2   C            X  0.00227450 -0.00204380  0.00003350 -0.00069396 -0.00153013
                   Y  0.00686740 -0.00603367  0.00009134 -0.00049170 -0.00479763
                   Z -0.00282479  0.00223068 -0.00001296  0.00112284  0.00146215
  3   C            X  0.00019047  0.00005398  0.00002820  0.01735941 -0.02859530
                   Y -0.00070302  0.00108792 -0.00028659  0.02942147 -0.04710355
                   Z  0.00035732 -0.00104634  0.00011520 -0.03581047  0.05839164
  4   C            X  0.00392013 -0.00864332  0.00090289  0.00007732  0.00011425
                   Y  0.00010435  0.00143942  0.00005332 -0.00016600  0.00020071
                   Z -0.01525060  0.02858233 -0.00285315 -0.00006930  0.00054752
  5   C            X -0.00185326  0.00466303 -0.00036747 -0.00005771  0.00007313
                   Y  0.01732100 -0.06203247  0.00521312 -0.00014884 -0.00061012
                   Z -0.00657839  0.03235662 -0.00272591  0.00022869  0.00034748
  6   C            X  0.01221241  0.01967416 -0.00249126  0.00027566  0.00055956
                   Y -0.02096086 -0.02812497  0.00587508  0.00000624 -0.00031453
                   Z -0.01028501 -0.02219839  0.00238698 -0.00028549 -0.00034603
  7   C            X  0.02730124  0.00165544 -0.02109663  0.00000017  0.00005901
                   Y  0.00442449  0.00236277  0.00462791 -0.00003077 -0.00011668
                   Z -0.05727991 -0.00321002  0.04495500 -0.00048910 -0.00050149
  8   C            X -0.01039502 -0.00252888 -0.01406363 -0.00006017 -0.00014106
                   Y -0.03522859 -0.01098556 -0.07042644 -0.00006768  0.00008126
                   Z  0.01577911  0.00352104  0.01823843 -0.00002072  0.00004440
  9   C            X  0.00054819  0.00033054  0.00102805  0.00005595 -0.00014713
                   Y  0.00047468  0.00110851  0.00007614  0.00001750  0.00002891
                   Z -0.00111593 -0.00046875 -0.00215677  0.00009863 -0.00008864
 10   O            X -0.00005842 -0.00000276 -0.00012988  0.00001731 -0.00002565
                   Y -0.00013429 -0.00018216  0.00013477 -0.00000429  0.00000707
                   Z  0.00009180 -0.00001706  0.00029709 -0.00000377 -0.00000871
 11   H            X  0.00111475  0.00097788 -0.00008575 -0.06062748 -0.03733425
                   Y -0.00618788 -0.00536211  0.00155429  0.46285058  0.28658788
                   Z -0.00396645 -0.00338123  0.00091654  0.30238526  0.18670304
 12   H            X -0.00033807 -0.00036111 -0.00024892  0.02809454  0.01759604
                   Y  0.00334914 -0.01132220  0.00306716  0.48303146  0.29505935
                   Z -0.00227503  0.00663153 -0.00186811 -0.31319485 -0.19134528
 13   H            X -0.02167825  0.01874316 -0.00011528  0.00532907  0.01709209
                   Y -0.07830574  0.06802335 -0.00079858  0.01026759  0.05793266
                   Z  0.03131485 -0.02733243  0.00026798 -0.00814560 -0.02155757
 14   H            X  0.00023355 -0.00022503  0.00034127 -0.00052789  0.00142337
                   Y  0.00655082 -0.01132605  0.00309967 -0.31919088  0.51336814
                   Z -0.00325697  0.00547371 -0.00130529  0.13612562 -0.21836808
 15   H            X -0.00035364 -0.00300020 -0.00005394 -0.20588851  0.33481429
                   Y -0.00011125 -0.00039335 -0.00006725 -0.02949691  0.04864225
                   Z  0.00020624  0.00468462  0.00008885  0.28426848 -0.46208700
 16   H            X -0.03700077  0.06844209 -0.00605489 -0.00054141  0.00149360
                   Y -0.01349889  0.02309342 -0.00202513 -0.00012304  0.00056097
                   Z  0.16736223 -0.30520088  0.02744104  0.00351164 -0.00935037
 17   H            X  0.00885936 -0.02977456  0.00276315 -0.00002064 -0.00021746
                   Y -0.18921663  0.68550216 -0.05447519  0.00196395  0.00678189
                   Z  0.09269847 -0.34004244  0.02690631 -0.00110222 -0.00327381
 18   H            X -0.14835359 -0.21981998  0.03362826 -0.00410664 -0.00495891
                   Y  0.21789247  0.32006345 -0.05070752  0.00504638  0.00667079
                   Z  0.13021739  0.19662349 -0.02991025  0.00298582  0.00392284
 19   H            X -0.30954147 -0.01864449  0.21884325 -0.00197588 -0.00210487
                   Y -0.04324794 -0.00384456  0.02824003 -0.00002009 -0.00008944
                   Z  0.64967668  0.03835814 -0.45931575  0.00378757  0.00394109
 20   H            X  0.10841449  0.03107836  0.18149889  0.00039053  0.00018585
                   Y  0.43053003  0.12459580  0.72633517  0.00094779 -0.00003544
                   Z -0.15447057 -0.04456163 -0.25848943 -0.00020868  0.00006928

 TRANS. SAYVETZ    X  0.00000023 -0.00000003 -0.00000039  0.00000003 -0.00000002
                   Y -0.00000031 -0.00000050  0.00000026  0.00000014  0.00000009
                   Z -0.00000004 -0.00000072  0.00000027  0.00000009 -0.00000005
               TOTAL  0.00000039  0.00000088  0.00000054  0.00000017  0.00000011

   ROT. SAYVETZ    X  0.00006233  0.00013294 -0.00003086 -0.00016586 -0.00053466
                   Y  0.00039655 -0.00010013  0.00000752 -0.00052690  0.00084958
                   Z -0.00023559 -0.00032608  0.00007115  0.00047430  0.00103921
               TOTAL  0.00046544  0.00036610  0.00007792  0.00072807  0.00144486

 REFERENCE ON SAYVETZ CONDITIONS - A. SAYVETZ, J.CHEM.PHYS., 7, 383-389(1939).

 NOTE - THE MODES J,K ARE ORTHONORMALIZED ACCORDING TO
 SUM ON I   M(I) * (X(I,J)*X(I,K) + Y(I,J)*Y(I,K) + Z(I,J)*Z(I,K)) = DELTA(J,K)

  MODE FREQ(CM**-1)  SYMMETRY  RED. MASS  IR INTENS.
     1    1105.038    A        9.337620    0.024492
     2       0.066    A        6.613165    0.000021
     3       0.020    A        6.702619    0.000000
     4       0.005    A        6.703544    0.000000
     5       1.704    A        4.857222    0.014709
     6      29.502    A        5.891736    0.016281
     7      35.795    A        4.148685    0.001063
     8     110.732    A        4.132998    0.028006
     9     202.451    A        3.552198    0.015164
    10     257.735    A        4.164048    0.029891
    11     373.627    A        5.303368    0.031104
    12     410.181    A        5.704370    0.169188
    13     456.155    A        1.990705    0.060363
    14     487.190    A        3.523059    0.073536
    15     497.133    A        4.519527    0.137142
    16     536.886    A        1.988639    0.234273
    17     570.919    A        2.521754    0.186613
    18     603.776    A        5.426071    0.018138
    19     674.651    A        5.938337    0.036235
    20     837.151    A        3.394308    0.044705
    21     852.862    A        4.080804    0.044640
    22     924.927    A        1.631585    1.209285
    23     935.616    A        1.774989    0.149065
    24     971.338    A        1.615373    0.876947
    25     995.140    A        1.364991    0.224676
    26    1023.981    A        1.418896    0.043217
    27    1084.997    A        1.840029    0.188567
    28    1122.433    A        2.888415    0.002581
    29    1171.610    A        1.971605    0.073762
    30    1201.753    A        1.125585    0.032751
    31    1209.690    A        1.271828    0.004302
    32    1228.752    A        1.503092    0.137565
    33    1260.350    A        1.270380    0.221281
    34    1278.537    A        1.151210    0.415605
    35    1305.196    A        1.232845    0.016337
    36    1328.612    A        1.260979    0.107539
    37    1355.718    A        1.266666    0.030097
    38    1358.662    A        1.122946    0.019517
    39    1419.229    A        1.832387    0.645095
    40    1471.302    A        1.330336    0.101017
    41    1484.853    A        1.781987    0.004817
    42    1600.511    A        1.604231    0.151304
    43    1639.632    A        1.714829    0.150550
    44    1668.157    A        1.505938    0.060471
    45    1727.110    A        2.566464    0.327354
    46    1758.634    A        1.892760    0.050076
    47    1811.296    A        1.277777    0.196551
    48    1863.188    A        2.593601    0.054736
    49    2004.898    A        7.008252    0.061513
    50    2075.454    A       10.553544    1.845759
    51    3634.336    A        1.062353    0.025231
    52    3638.707    A        1.064527    0.106478
    53    3689.500    A        1.090839    0.127935
    54    3697.307    A        1.093933    0.076855
    55    3699.050    A        1.096186    0.099462
    56    3704.979    A        1.091798    0.494344
    57    3715.885    A        1.100903    0.075521
    58    3736.102    A        1.105982    0.064499
    59    3785.881    A        1.117057    0.000597
    60    3787.663    A        1.117466    0.017049

     -------------------------------
     THERMOCHEMISTRY AT T=  298.15 K
     -------------------------------

 USING IDEAL GAS, RIGID ROTOR, HARMONIC NORMAL MODE APPROXIMATIONS.
 P=  1.01325E+05 PASCAL.
 ALL FREQUENCIES ARE SCALED BY   1.00000
 THE MOMENTS OF INERTIA ARE (IN AMU*BOHR**2)
            865.18122          1321.62688          1660.66908
 THE ROTATIONAL SYMMETRY NUMBER IS  1.0
 THE ROTATIONAL CONSTANTS ARE (IN GHZ)
      2.08406     1.36429     1.08576
   1 IMAGINARY FREQUENCY VIBRATION(S) IS(ARE) EXCLUDED
     FROM THE FOLLOWING THERMOCHEMICAL ANALYSIS.
      8 -     60 VIBRATIONAL MODES ARE USED IN THERMOCHEMISTRY.
 THE HARMONIC ZERO POINT ENERGY IS (SCALED BY   1.000)
        0.191918 HARTREE/MOLECULE    42121.219608 CM**-1/MOLECULE 
      120.430731 KCAL/MOL              503.882179 KJ/MOL

               Q               LN Q
 ELEC.     1.00000E+00       0.000000
 TRANS.    6.10192E+07      17.926699
 ROT.      4.93277E+05      13.108826
 VIB.      1.47798E+01       2.693264
 TOT.      4.44864E+14      33.728790

              E         H         G         CV        CP        S
           KJ/MOL    KJ/MOL    KJ/MOL   J/MOL-K   J/MOL-K   J/MOL-K
 ELEC.      0.000     0.000     0.000     0.000     0.000     0.000
 TRANS.     3.718     6.197   -44.439    12.472    20.786   169.836
 ROT.       3.718     3.718   -32.496    12.472    12.472   121.464
 VIB.     515.201   515.201   497.206    94.217    94.217    60.356
 TOTAL    522.638   525.117   420.271   119.161   127.475   351.655
 VIB. THERMAL CORRECTION E(T)-E(0) = H(T)-H(0) =     11318.570 J/MOL

              E         H         G         CV        CP        S
         KCAL/MOL  KCAL/MOL  KCAL/MOL CAL/MOL-K CAL/MOL-K CAL/MOL-K
 ELEC.      0.000     0.000     0.000     0.000     0.000     0.000
 TRANS.     0.889     1.481   -10.621     2.981     4.968    40.592
 ROT.       0.889     0.889    -7.767     2.981     2.981    29.031
 VIB.     123.136   123.136   118.835    22.518    22.518    14.425
 TOTAL    124.913   125.506   100.447    28.480    30.467    84.048
 VIB. THERMAL CORRECTION E(T)-E(0) = H(T)-H(0) =      2705.203 CAL/MOL

     *******************************************************
     * THIS IS NOT A STATIONARY POINT ON THE MOLECULAR PES *
     *     THE VIBRATIONAL ANALYSIS IS NOT VALID !!!       *
     *******************************************************
 ......END OF NORMAL COORDINATE ANALYSIS......
 STEP CPU TIME =     0.01 TOTAL CPU TIME =        181.7 (      3.0 MIN)
 TOTAL WALL CLOCK TIME=        182.1 SECONDS, CPU UTILIZATION IS    99.77%
               580000  WORDS OF DYNAMIC MEMORY USED
 EXECUTION OF GAMESS TERMINATED NORMALLY Sat Nov 13 20:33:07 2021
 DDI: 263640 bytes (0.3 MB / 0 MWords) used by master data server.

 ----------------------------------------
 CPU timing information for all processes
 ========================================
 0: 178.643 + 3.63 = 181.707
 ----------------------------------------
 ddikick.x: exited gracefully.
----- accounting info -----
Files used on the master node chemcompute-node-0.novalocal were:
-rw-r--r--. 1 chemcomp chemcomp     1346 Nov 13 20:30 /scratch/306153/342055.F05
-rw-rw-r--. 1 chemcomp chemcomp 18001600 Nov 13 20:32 /scratch/306153/342055.F08
-rw-rw-r--. 1 chemcomp chemcomp 85196800 Nov 13 20:33 /scratch/306153/342055.F10
-rw-rw-r--. 1 chemcomp chemcomp   878880 Nov 13 20:33 /scratch/306153/342055.F18
Sat Nov 13 20:33:10 UTC 2021
0.161u 0.072s 3:05.73 0.1%	0+0k 8+216io 0pf+0w
Finishing Up...
Looking for IR data...
Looking for Raman data...
vibramans not found
Looking for thermodynamics data...
Looking for UV-Vis data...
306153
