----- GAMESS execution script 'rungms' -----
This job is running on host chemcompute-node-0.novalocal
under operating system Linux at Sat Nov 13 21:07:40 UTC 2021
SLURM has assigned the following compute nodes to this run:
chemcompute-node-0
Available scratch disk space (Kbyte units) at beginning of the job is
Filesystem     1K-blocks     Used Available Use% Mounted on
/dev/sda1       62903276 16891180  46012096  27% /
GAMESS temporary binary files will be written to /scratch/306173
GAMESS supplementary output files will be written to /data/slurm/342075
Copying input file 342075.inp to your run's scratch directory...
The generated host list is
chemcompute-node-0.novalocal

 Distributed Data Interface kickoff program.
 Initiating 1 compute processes on 1 nodes to run the following command:
 /data/gamess-2019R1-ddi/gamess.00.x 342075 

          ******************************************************
          *         GAMESS VERSION = 30 JUN 2019 (R1)          *
          *             FROM IOWA STATE UNIVERSITY             *
          * M.W.SCHMIDT, K.K.BALDRIDGE, J.A.BOATZ, S.T.ELBERT, *
          *   M.S.GORDON, J.H.JENSEN, S.KOSEKI, N.MATSUNAGA,   *
          *          K.A.NGUYEN, S.J.SU, T.L.WINDUS,           *
          *       TOGETHER WITH M.DUPUIS, J.A.MONTGOMERY       *
          *         J.COMPUT.CHEM.  14, 1347-1363(1993)        *
          **************** 64 BIT LINUX VERSION ****************

  SINCE 1993, STUDENTS AND POSTDOCS WORKING AT IOWA STATE UNIVERSITY
  AND ALSO IN THEIR VARIOUS JOBS AFTER LEAVING ISU HAVE MADE IMPORTANT
  CONTRIBUTIONS TO THE CODE:
     IVANA ADAMOVIC, CHRISTINE AIKENS, YURI ALEXEEV, POOJA ARORA,
     ANDREY ASADCHEV, ROB BELL, PRADIPTA BANDYOPADHYAY, JONATHAN BENTZ,
     COLLEEN BERTONI, BRETT BODE, KURT BRORSEN, CALEB CARLIN, GALINA CHABAN,
     WEI CHEN, CHEOL HO CHOI, PAUL DAY, ALBERT DEFUSCO, NUWAN DESILVA,
     TIM DUDLEY, DMITRI FEDOROV, ALEX FINDLATER, GRAHAM FLETCHER, 
     MARK FREITAG, KURT GLAESEMANN, ANASTASIA GUNINA,
     DAN KEMP, GRANT MERRILL, NORIYUKI MINEZAWA, JONATHAN MULLIN,
     TAKESHI NAGATA, SEAN NEDD, HEATHER NETZLOFF, BOSILJKA NJEGIC, RYAN OLSON,
     MIKE PAK, BUU PHAM,
     SPENCER PRUITT, LUKE ROSKOP, JIM SHOEMAKER, LYUDMILA SLIPCHENKO,
     TONY SMITH, SAROM SOK LEANG, JIE SONG, TETSUYA TAKETSUGU, SIMON WEBB,
     PENG XU, SOOHAENG YOO, FEDERICO ZAHARIEV

  ADDITIONAL CODE HAS BEEN PROVIDED BY COLLABORATORS IN OTHER GROUPS:
     IOWA STATE UNIVERSITY:
          JOE IVANIC, AARON WEST, LAIMUTIS BYTAUTAS, KLAUS RUEDENBERG
     UNIVERSITY OF TOKYO: KIMIHIKO HIRAO, TAKAHITO NAKAJIMA,
          TAKAO TSUNEDA, MUNEAKI KAMIYA, SUSUMU YANAGISAWA,
          KIYOSHI YAGI, MAHITO CHIBA, SEIKEN TOKURA, NAOAKI KAWAKAMI
     UNIVERSITY OF AARHUS: FRANK JENSEN
     UNIVERSITY OF IOWA: VISVALDAS KAIRYS, HUI LI
     NATIONAL INST. OF STANDARDS AND TECHNOLOGY: WALT STEVENS, DAVID GARMER
     UNIVERSITY OF PISA: BENEDETTA MENNUCCI, JACOPO TOMASI
     UNIVERSITY OF MEMPHIS: HENRY KURTZ, PRAKASHAN KORAMBATH
     UNIVERSITY OF ALBERTA: TOBY ZENG, MARIUSZ KLOBUKOWSKI
     UNIVERSITY OF NEW ENGLAND: MARK SPACKMAN
     MIE UNIVERSITY: HIROAKI UMEDA
     NAT. INST. OF ADVANCED INDUSTRIAL SCIENCE AND TECHNOLOGY: KAZUO KITAURA
     MICHIGAN STATE UNIVERSITY:
          KAROL KOWALSKI, MARTA WLOCH, JEFFREY GOUR, JESSE LUTZ,
          WEI LI, JUN SHEN, J. EMILIANO DEUSTUA, PIOTR PIECUCH
     UNIVERSITY OF MINNESOTA:
          YINAN SHU
     UNIVERSITY OF SILESIA: MONIKA MUSIAL, STANISLAW KUCHARSKI
     FACULTES UNIVERSITAIRES NOTRE-DAME DE LA PAIX:
          OLIVIER QUINET, BENOIT CHAMPAGNE
     UNIVERSITY OF CALIFORNIA - SANTA BARBARA: BERNARD KIRTMAN
     INSTITUTE FOR MOLECULAR SCIENCE:
          KAZUYA ISHIMURA, MICHIO KATOUDA, AND SHIGERU NAGASE
     UNIVERSITY OF NOTRE DAME: ANNA POMOGAEVA, DAN CHIPMAN
     KYUSHU UNIVERSITY:
          HARUYUKI NAKANO,
          FENG LONG GU, JACEK KORCHOWIEC, MARCIN MAKOWSKI, AND YURIKO AOKI,
          HIROTOSHI MORI AND EISAKU MIYOSHI
     PENNSYLVANIA STATE UNIVERSITY:
          TZVETELIN IORDANOV, CHET SWALINA, JONATHAN SKONE,
          SHARON HAMMES-SCHIFFER
     WASEDA UNIVERSITY:
          MASATO KOBAYASHI, TOMOKO AKAMA, TSUGUKI TOUMA,
          TAKESHI YOSHIKAWA, YASUHIRO IKABATA, JUNJI SEINO,
          YUYA NAKAJIMA, HIROMI NAKAI
     NANJING UNIVERSITY: SHUHUA LI
     UNIVERSITY OF NEBRASKA:
          PEIFENG SU, DEJUN SI, NANDUN THELLAMUREGE, YALI WANG, HUI LI
     UNIVERSITY OF ZURICH: ROBERTO PEVERATI, KIM BALDRIDGE
     N. COPERNICUS UNIVERSITY AND JACKSON STATE UNIVERSITY:
          MARIA BARYSZ
     UNIVERSITY OF COPENHAGEN: Jimmy Kromann, CASPER STEINMANN
     TOKYO INSTITUTE OF TECHNOLOGY: HIROYA NAKATA
     NAGOYA UNIVERSITY: YOSHIO NISHIMOTO, STEPHAN IRLE
     MOSCOW STATE UNIVERSITY: VLADIMIR MIRONOV
     A.N.NESMEYANOV INSTITUTE OF ORGANOELEMENT COMPOUNDS OF RUSSIAN ACADEMY OF SCIENCES:
          IGOR S. GERASIMOV

 EXECUTION OF GAMESS BEGUN Sat Nov 13 21:07:42 2021

            ECHO OF THE FIRST FEW INPUT CARDS -
 INPUT CARD>!File created by the GAMESS Input Deck Generator Plugin for Avogadro            
 INPUT CARD> $BASIS GBASIS=STO NGAUSS=3 $END                                                
 INPUT CARD> $CONTRL SCFTYP=RHF RUNTYP=SADPOINT $END                                        
 INPUT CARD> $STATPT hssend=.t. OPTTOL=0.0005 NSTEP=50 $END                                 
 INPUT CARD> $STATPT HESS=calc ihrep=5 $END                                                 
 INPUT CARD> $FORCE nvib=2 $END                                                             
 INPUT CARD> $ZMAT DLC=.t. auto=.t. nonvdw(1)=1,6,3,4,4,5,6,1,2,2,3 $END                    
 INPUT CARD>!$ZMAT IFZMAT(1)=1,1,6,1,3,4 fvalue(1)=2.00,2.00 $END                           
 INPUT CARD>                                                                                
 INPUT CARD> $DATA                                                                          
 INPUT CARD>Title                                                                           
 INPUT CARD>C1                                                                              
 INPUT CARD>C     6.0     3.91473436    -1.31871045    -3.27625751                          
 INPUT CARD>C     6.0     3.01427460    -1.35218608    -2.20537496                          
 INPUT CARD>C     6.0     2.95003986    -0.26907459    -1.32108808                          
 INPUT CARD>C     6.0     4.76461840    -0.12447204    -0.49259835                          
 INPUT CARD>C     6.0     5.51780796    -1.14635694    -1.08343065                          
 INPUT CARD>C     6.0     5.72562885    -1.06045091    -2.46757770                          
 INPUT CARD>C     6.0     6.03522968     0.32009995    -2.98598194                          
 INPUT CARD>C     6.0     5.75899839     1.40310693    -2.28797364                          
 INPUT CARD>C     6.0     5.09460115     1.30824411    -0.93376821                          
 INPUT CARD>O     8.0     4.83471012     2.28702593    -0.24658875                          
 INPUT CARD>H     1.0     4.02570629    -2.21977520    -3.87049913                          
 INPUT CARD>H     1.0     3.95183778    -0.41630921    -3.87413359                          
 INPUT CARD>H     1.0     2.74996495    -2.32678604    -1.81161046                          
 INPUT CARD>H     1.0     2.93382788     0.72572422    -1.75026822                          
 INPUT CARD>H     1.0     2.30887532    -0.35869071    -0.45073286                          
 INPUT CARD>H     1.0     4.54169512    -0.20512311     0.56739086                          
 INPUT CARD>H     1.0     5.55529213    -2.11750007    -0.60518461                          
 INPUT CARD>H     1.0     6.28491974    -1.85708976    -2.94846630                          
 INPUT CARD>H     1.0     6.50022745     0.38529244    -3.96364045                          
 INPUT CARD>H     1.0     6.00714922     2.39542818    -2.64098215                          
 INPUT CARD> $END                                                                           
    1000000 WORDS OF MEMORY AVAILABLE

     BASIS OPTIONS
     -------------
     GBASIS=STO          IGAUSS=       3      POLAR=NONE    
     NDFUNC=       0     NFFUNC=       0     DIFFSP=       F
     NPFUNC=       0      DIFFS=       F     BASNAM=        


     RUN TITLE
     ---------
 Title                                                                           

 THE POINT GROUP OF THE MOLECULE IS C1      
 THE ORDER OF THE PRINCIPAL AXIS IS     0

 ATOM      ATOMIC                      COORDINATES (BOHR)
           CHARGE         X                   Y                   Z
 C           6.0     7.3977752551       -2.4920014076       -6.1912289591
 C           6.0     5.6961530457       -2.5552611756       -4.1675543746
 C           6.0     5.5747669883       -0.5084772454       -2.4964944768
 C           6.0     9.0038232121       -0.2352180487       -0.9308759035
 C           6.0    10.4271450973       -2.1663005007       -2.0473870552
 C           6.0    10.8198696339       -2.0039616433       -4.6630457064
 C           6.0    11.4049303682        0.6049011942       -5.6426876709
 C           6.0    10.8829289208        2.6514876292       -4.3236432467
 C           6.0     9.6274001902        2.4722228930       -1.7645660529
 O           8.0     9.1362773569        4.3218523345       -0.4659851692
 H           1.0     7.6074817951       -4.1947668823       -7.3141827914
 H           1.0     7.4678905521       -0.7867103331       -7.3210509249
 H           1.0     5.1966802313       -4.3969880477       -3.4234473659
 H           1.0     5.5441307883        1.3714199185       -3.3075273408
 H           1.0     4.3631416946       -0.6778271562       -0.8517615991
 H           1.0     8.5825592966       -0.3876264716        1.0722132533
 H           1.0    10.4979799074       -4.0014949113       -1.1436330849
 H           1.0    11.8767761634       -3.5093907810       -5.5717933910
 H           1.0    12.2836487384        0.7280971367       -7.4901943644
 H           1.0    11.3518659932        4.5267028835       -4.9907326020

          INTERNUCLEAR DISTANCES (ANGS.)
          ------------------------------

                1 C          2 C          3 C          4 C          5 C     

   1 C       0.0000000    1.3995492 *  2.4197228 *  3.1459921    2.7217715 *
   2 C       1.3995492 *  0.0000000    1.3997214 *  2.7394505 *  2.7511459 *
   3 C       2.4197228 *  1.3997214 *  0.0000000    2.0000001 *  2.7238830 *
   4 C       3.1459921    2.7394505 *  2.0000001 *  0.0000000    1.4002236 *
   5 C       2.7217715 *  2.7511459 *  2.7238830 *  1.4002236 *  0.0000000  
   6 C       2.0000000 *  2.7395805 *  3.1055771    2.3874968 *  1.4022954 *
   7 C       2.6956372 *  3.5400646    3.5549113    2.8335594 *  2.4572184 *
   8 C       3.4331188    3.8899834    3.4090038    2.5584490 *  2.8299934 *
   9 C       3.7121735    3.6086883    2.6901848 *  1.5349902 *  2.4953094 *
  10 O       4.7986022    4.5160484    3.3526379    2.4250270 *  3.5993117  
  11 H       1.0850602 *  2.1326846 *  3.3855262    4.0430805    3.3386142  
  12 H       1.0831253 *  2.1306444 *  2.7465102 *  3.4900662    3.2822637  
  13 H       2.1255811 *  1.0838612 *  2.1248102 *  3.2632512    3.0959027  
  14 H       2.7332278 *  2.1286862 *  1.0835511 *  2.3783106 *  3.2598026  
  15 H       3.3888067    2.1362093 *  1.0847309 *  2.4672424 *  3.3642196  
  16 H       4.0505295    3.3670458    2.4705888 *  1.0861752 *  2.1363354 *
  17 H       3.2348300    3.0988844    3.2736118    2.1470914 *  1.0831636 *
  18 H       2.4525656 *  3.3917889    4.0362824    3.3681698    2.1382141 *
  19 H       3.1718915    4.2734291    4.4738251    3.9141196    3.4068617  
  20 H       4.3100581    4.8157725    4.2646938    3.5368535    3.8999568  

                6 C          7 C          8 C          9 C         10 O     

   1 C       2.0000000 *  2.6956372 *  3.4331188    3.7121735    4.7986022  
   2 C       2.7395805 *  3.5400646    3.8899834    3.6086883    4.5160484  
   3 C       3.1055771    3.5549113    3.4090038    2.6901848 *  3.3526379  
   4 C       2.3874968 *  2.8335594 *  2.5584490 *  1.5349902 *  2.4250270 *
   5 C       1.4022954 *  2.4572184 *  2.8299934 *  2.4953094 *  3.5993117  
   6 C       0.0000000    1.5068233 *  2.4703215 *  2.8916230 *  4.1148669  
   7 C       1.5068233 *  0.0000000    1.3177342 *  2.4643036 *  3.5797095  
   8 C       2.4703215 *  1.3177342 *  0.0000000    1.5113884 *  2.4089155 *
   9 C       2.8916230 *  2.4643036 *  1.5113884 *  0.0000000    1.2238353 *
  10 O       4.1148669    3.5797095    2.4089155 *  1.2238353 *  0.0000000  
  11 H       2.4903731 *  3.3573085    4.3167075    4.7131566    5.8393895  
  12 H       2.3536467 *  2.3815192 *  3.0152957    3.5952386    4.6093997  
  13 H       3.2997687    4.3792828    4.8159429    4.4137705    5.2993128  
  14 H       3.3910333    3.3630659    2.9545834 *  2.3822138 *  2.8830658 *
  15 H       4.0291854    4.5578461    4.2875090    3.2821126    3.6635137  
  16 H       3.3681328    3.8901109    3.4959030    2.2021499 *  2.6380348 *
  17 H       2.1482261 *  3.4409926    3.9074223    3.4721645    4.4774634  
  18 H       1.0856766 *  2.1917818 *  3.3677480    3.9363950    5.1552832  
  19 H       2.2199956 *  1.0845686 *  2.0960024 *  3.4652202    4.4952210  
  20 H       3.4716600    2.1039963 *  1.0820792 *  2.2202010 *  2.6682362 *

               11 H         12 H         13 H         14 H         15 H     

   1 C       1.0850602 *  1.0831253 *  2.1255811 *  2.7332278 *  3.3888067  
   2 C       2.1326846 *  2.1306444 *  1.0838612 *  2.1286862 *  2.1362093 *
   3 C       3.3855262    2.7465102 *  2.1248102 *  1.0835511 *  1.0847309 *
   4 C       4.0430805    3.4900662    3.2632512    2.3783106 *  2.4672424 *
   5 C       3.3386142    3.2822637    3.0959027    3.2598026    3.3642196  
   6 C       2.4903731 *  2.3536467 *  3.2997687    3.3910333    4.0291854  
   7 C       3.3573085    2.3815192 *  4.3792828    3.3630659    4.5578461  
   8 C       4.3167075    3.0152957    4.8159429    2.9545834 *  4.2875090  
   9 C       4.7131566    3.5952386    4.4137705    2.3822138 *  3.2821126  
  10 O       5.8393895    4.6093997    5.2993128    2.8830658 *  3.6635137  
  11 H       0.0000000    1.8049818 *  2.4244566 *  3.7899267    4.2551082  
  12 H       1.8049818 *  0.0000000    3.0575189    2.6175157 *  3.7976727  
  13 H       2.4244566 *  3.0575189    0.0000000    3.0586578    2.4330941 *
  14 H       3.7899267    2.6175157 *  3.0586578    0.0000000    1.8042488 *
  15 H       4.2551082    3.7976727    2.4330941 *  1.8042488 *  0.0000000  
  16 H       4.9010137    4.4854956    3.6566922    2.9703968 *  2.4587890 *
  17 H       3.6072665    4.0188485    3.0609026    4.0332636    3.6954686  
  18 H       2.4669274 *  2.8941285 *  3.7428547    4.3973200    4.9287728  
  19 H       3.5942047    2.6729883 *  5.1040250    4.2111894    5.5191905  
  20 H       5.1708733    3.6947036    5.7962414    3.6092363    5.1048597  

               16 H         17 H         18 H         19 H         20 H     

   1 C       4.0505295    3.2348300    2.4525656 *  3.1718915    4.3100581  
   2 C       3.3670458    3.0988844    3.3917889    4.2734291    4.8157725  
   3 C       2.4705888 *  3.2736118    4.0362824    4.4738251    4.2646938  
   4 C       1.0861752 *  2.1470914 *  3.3681698    3.9141196    3.5368535  
   5 C       2.1363354 *  1.0831636 *  2.1382141 *  3.4068617    3.8999568  
   6 C       3.3681328    2.1482261 *  1.0856766 *  2.2199956 *  3.4716600  
   7 C       3.8901109    3.4409926    2.1917818 *  1.0845686 *  2.1039963 *
   8 C       3.4959030    3.9074223    3.3677480    2.0960024 *  1.0820792 *
   9 C       2.2021499 *  3.4721645    3.9363950    3.4652202    2.2202010 *
  10 O       2.6380348 *  4.4774634    5.1552832    4.4952210    2.6682362 *
  11 H       4.9010137    3.6072665    2.4669274 *  3.5942047    5.1708733  
  12 H       4.4854956    4.0188485    2.8941285 *  2.6729883 *  3.6947036  
  13 H       3.6566922    3.0609026    3.7428547    5.1040250    5.7962414  
  14 H       2.9703968 *  4.0332636    4.3973200    4.2111894    3.6092363  
  15 H       2.4587890 *  3.6954686    4.9287728    5.5191905    5.1048597  
  16 H       0.0000000    2.4616047 *  4.2578254    4.9713865    4.3822460  
  17 H       2.4616047 *  0.0000000    2.4680233 *  4.2937278    4.9714352  
  18 H       4.2578254    2.4680233 *  0.0000000    2.4708731 *  4.2726586  
  19 H       4.9713865    4.2937278    2.4708731 *  0.0000000    2.4562567 *
  20 H       4.3822460    4.9714352    4.2726586    2.4562567 *  0.0000000  

  * ... LESS THAN  3.000


     ATOMIC BASIS SET
     ----------------
 THE CONTRACTED PRIMITIVE FUNCTIONS HAVE BEEN UNNORMALIZED
 THE CONTRACTED BASIS FUNCTIONS ARE NOW NORMALIZED TO UNITY

  SHELL TYPE  PRIMITIVE        EXPONENT          CONTRACTION COEFFICIENT(S)

 C         

      1   S       1            71.6168373    0.154328967295
      1   S       2            13.0450963    0.535328142282
      1   S       3             3.5305122    0.444634542185

      2   L       4             2.9412494   -0.099967229187    0.155916274999
      2   L       5             0.6834831    0.399512826089    0.607683718598
      2   L       6             0.2222899    0.700115468880    0.391957393099

 C         

      3   S       7            71.6168373    0.154328967295
      3   S       8            13.0450963    0.535328142282
      3   S       9             3.5305122    0.444634542185

      4   L      10             2.9412494   -0.099967229187    0.155916274999
      4   L      11             0.6834831    0.399512826089    0.607683718598
      4   L      12             0.2222899    0.700115468880    0.391957393099

 C         

      5   S      13            71.6168373    0.154328967295
      5   S      14            13.0450963    0.535328142282
      5   S      15             3.5305122    0.444634542185

      6   L      16             2.9412494   -0.099967229187    0.155916274999
      6   L      17             0.6834831    0.399512826089    0.607683718598
      6   L      18             0.2222899    0.700115468880    0.391957393099

 C         

      7   S      19            71.6168373    0.154328967295
      7   S      20            13.0450963    0.535328142282
      7   S      21             3.5305122    0.444634542185

      8   L      22             2.9412494   -0.099967229187    0.155916274999
      8   L      23             0.6834831    0.399512826089    0.607683718598
      8   L      24             0.2222899    0.700115468880    0.391957393099

 C         

      9   S      25            71.6168373    0.154328967295
      9   S      26            13.0450963    0.535328142282
      9   S      27             3.5305122    0.444634542185

     10   L      28             2.9412494   -0.099967229187    0.155916274999
     10   L      29             0.6834831    0.399512826089    0.607683718598
     10   L      30             0.2222899    0.700115468880    0.391957393099

 C         

     11   S      31            71.6168373    0.154328967295
     11   S      32            13.0450963    0.535328142282
     11   S      33             3.5305122    0.444634542185

     12   L      34             2.9412494   -0.099967229187    0.155916274999
     12   L      35             0.6834831    0.399512826089    0.607683718598
     12   L      36             0.2222899    0.700115468880    0.391957393099

 C         

     13   S      37            71.6168373    0.154328967295
     13   S      38            13.0450963    0.535328142282
     13   S      39             3.5305122    0.444634542185

     14   L      40             2.9412494   -0.099967229187    0.155916274999
     14   L      41             0.6834831    0.399512826089    0.607683718598
     14   L      42             0.2222899    0.700115468880    0.391957393099

 C         

     15   S      43            71.6168373    0.154328967295
     15   S      44            13.0450963    0.535328142282
     15   S      45             3.5305122    0.444634542185

     16   L      46             2.9412494   -0.099967229187    0.155916274999
     16   L      47             0.6834831    0.399512826089    0.607683718598
     16   L      48             0.2222899    0.700115468880    0.391957393099

 C         

     17   S      49            71.6168373    0.154328967295
     17   S      50            13.0450963    0.535328142282
     17   S      51             3.5305122    0.444634542185

     18   L      52             2.9412494   -0.099967229187    0.155916274999
     18   L      53             0.6834831    0.399512826089    0.607683718598
     18   L      54             0.2222899    0.700115468880    0.391957393099

 O         

     19   S      55           130.7093214    0.154328967295
     19   S      56            23.8088661    0.535328142282
     19   S      57             6.4436083    0.444634542185

     20   L      58             5.0331513   -0.099967229187    0.155916274999
     20   L      59             1.1695961    0.399512826089    0.607683718598
     20   L      60             0.3803890    0.700115468880    0.391957393099

 H         

     21   S      61             3.4252509    0.154328967295
     21   S      62             0.6239137    0.535328142282
     21   S      63             0.1688554    0.444634542185

 H         

     22   S      64             3.4252509    0.154328967295
     22   S      65             0.6239137    0.535328142282
     22   S      66             0.1688554    0.444634542185

 H         

     23   S      67             3.4252509    0.154328967295
     23   S      68             0.6239137    0.535328142282
     23   S      69             0.1688554    0.444634542185

 H         

     24   S      70             3.4252509    0.154328967295
     24   S      71             0.6239137    0.535328142282
     24   S      72             0.1688554    0.444634542185

 H         

     25   S      73             3.4252509    0.154328967295
     25   S      74             0.6239137    0.535328142282
     25   S      75             0.1688554    0.444634542185

 H         

     26   S      76             3.4252509    0.154328967295
     26   S      77             0.6239137    0.535328142282
     26   S      78             0.1688554    0.444634542185

 H         

     27   S      79             3.4252509    0.154328967295
     27   S      80             0.6239137    0.535328142282
     27   S      81             0.1688554    0.444634542185

 H         

     28   S      82             3.4252509    0.154328967295
     28   S      83             0.6239137    0.535328142282
     28   S      84             0.1688554    0.444634542185

 H         

     29   S      85             3.4252509    0.154328967295
     29   S      86             0.6239137    0.535328142282
     29   S      87             0.1688554    0.444634542185

 H         

     30   S      88             3.4252509    0.154328967295
     30   S      89             0.6239137    0.535328142282
     30   S      90             0.1688554    0.444634542185

 TOTAL NUMBER OF BASIS SET SHELLS             =   30
 NUMBER OF CARTESIAN GAUSSIAN BASIS FUNCTIONS =   60
 NUMBER OF ELECTRONS                          =   72
 CHARGE OF MOLECULE                           =    0
 SPIN MULTIPLICITY                            =    1
 NUMBER OF OCCUPIED ORBITALS (ALPHA)          =   36
 NUMBER OF OCCUPIED ORBITALS (BETA )          =   36
 TOTAL NUMBER OF ATOMS                        =   20
 THE NUCLEAR REPULSION ENERGY IS      509.6733360542

     $CONTRL OPTIONS
     ---------------
 SCFTYP=RHF          RUNTYP=SADPOINT     EXETYP=RUN     
 MPLEVL=       0     CITYP =NONE         CCTYP =NONE         VBTYP =NONE    
 DFTTYP=NONE         TDDFT =NONE    
 MULT  =       1     ICHARG=       0     NZVAR =       0     COORD =UNIQUE  
 PP    =NONE         RELWFN=NONE         LOCAL =NONE         NUMGRD=       F
 ISPHER=      -1     NOSYM =       0     MAXIT =      30     UNITS =ANGS    
 PLTORB=       F     MOLPLT=       F     AIMPAC=       F     FRIEND=        
 NPRINT=       7     IREST =       0     GEOM  =INPUT   
 NORMF =       0     NORMP =       0     ITOL  =      20     ICUT  =       9
 INTTYP=BEST         GRDTYP=BEST         QMTTOL= 1.0E-06

     $SYSTEM OPTIONS
     ---------------
  REPLICATED MEMORY=     1000000 WORDS (ON EVERY NODE).
 DISTRIBUTED MEMDDI=           0 MILLION WORDS IN AGGREGATE,
 MEMDDI DISTRIBUTED OVER   1 PROCESSORS IS           0 WORDS/PROCESSOR.
 TOTAL MEMORY REQUESTED ON EACH PROCESSOR=     1000000 WORDS.
 TIMLIM=      525600.00 MINUTES, OR     365.0 DAYS.
 PARALL= F  BALTYP=  DLB     KDIAG=    0  COREFL= F
 MXSEQ2=     300 MXSEQ3=     150  mem10=         0

          ----------------
          PROPERTIES INPUT
          ----------------

     MOMENTS            FIELD           POTENTIAL          DENSITY
 IEMOM =       1   IEFLD =       0   IEPOT =       0   IEDEN =       0
 WHERE =COMASS     WHERE =NUCLEI     WHERE =NUCLEI     WHERE =NUCLEI  
 OUTPUT=BOTH       OUTPUT=BOTH       OUTPUT=BOTH       OUTPUT=BOTH    
 IEMINT=       0   IEFINT=       0                     IEDINT=       0
                                                       MORB  =       0
          EXTRAPOLATION IN EFFECT
          SOSCF IN EFFECT
 ORBITAL PRINTING OPTION: NPREO=     1    60     2     1

     -------------------------------
     INTEGRAL TRANSFORMATION OPTIONS
     -------------------------------
     NWORD  =            0
     CUTOFF = 1.0E-09     MPTRAN =       0
     DIRTRF =       F     AOINTS =DUP     

          ----------------------
          INTEGRAL INPUT OPTIONS
          ----------------------
 NOPK  =       1 NORDER=       0 SCHWRZ=       T

     ------------------------------------------
     THE POINT GROUP IS C1 , NAXIS= 0, ORDER= 1
     ------------------------------------------

     DIMENSIONS OF THE SYMMETRY SUBSPACES ARE
 A   =   60

 ..... DONE SETTING UP THE RUN .....
 STEP CPU TIME =     0.04 TOTAL CPU TIME =          0.0 (      0.0 MIN)
 TOTAL WALL CLOCK TIME=          0.1 SECONDS, CPU UTILIZATION IS    28.57%


          -----------------------------
          STATIONARY POINT LOCATION RUN
          -----------------------------

 OBTAINING INITIAL HESSIAN, HESS=CALC    

     ---------------------------------
     HESSIAN MATRIX CONTROL PARAMETERS
     ---------------------------------
     METHOD=ANALYTIC   NVIB  =       2   VIBSIZ= 0.01000
     RDHESS=       F   PURIFY=       F   PRTIFC=       F
     VIBANL=       F   DECOMP=       F   PROJCT=       F
     SCLFAC= 1.00000   PRTSCN=       F   NPRT  =       0
     PULCOR=       F   NPUN  =       0   REDOVB=       T
     HSSTYP=GENERAL 
 Old integral subroutine is used

     ------------------------------
     CPHF RESPONSE SOLUTION OPTIONS
     ------------------------------
     POLAR  =       F     NWORD  =       0
     CPHF   =AO      

          ********************
          1 ELECTRON INTEGRALS
          ********************
 ...... END OF ONE-ELECTRON INTEGRALS ......
 STEP CPU TIME =     0.03 TOTAL CPU TIME =          0.1 (      0.0 MIN)
 TOTAL WALL CLOCK TIME=          0.2 SECONDS, CPU UTILIZATION IS    41.18%

          -------------
          GUESS OPTIONS
          -------------
          GUESS =HUCKEL            NORB  =       0          NORDER=       0
          MIX   =       F          PRTMO =       F          PUNMO =       F
          TOLZ  = 1.0E-08          TOLE  = 1.0E-05
          SYMDEN=       F          PURIFY=       F

 INITIAL GUESS ORBITALS GENERATED BY HUCKEL   ROUTINE.
 HUCKEL GUESS REQUIRES     53820 WORDS.

 SYMMETRIES FOR INITIAL GUESS ORBITALS FOLLOW.   BOTH SET(S).
    36 ORBITALS ARE OCCUPIED (   10 CORE ORBITALS).
    11=A       12=A       13=A       14=A       15=A       16=A       17=A   
    18=A       19=A       20=A       21=A       22=A       23=A       24=A   
    25=A       26=A       27=A       28=A       29=A       30=A       31=A   
    32=A       33=A       34=A       35=A       36=A       37=A       38=A   
    39=A       40=A       41=A       42=A       43=A       44=A       45=A   
    46=A   
 ...... END OF INITIAL ORBITAL SELECTION ......
 STEP CPU TIME =     0.03 TOTAL CPU TIME =          0.1 (      0.0 MIN)
 TOTAL WALL CLOCK TIME=          0.2 SECONDS, CPU UTILIZATION IS    52.63%

                    ----------------------
                    AO INTEGRAL TECHNOLOGY
                    ----------------------
     S,P,L SHELL ROTATED AXIS INTEGRALS, REPROGRAMMED BY
        KAZUYA ISHIMURA (IMS) AND JOSE SIERRA (SYNSTAR).
     S,P,D,L SHELL ROTATED AXIS INTEGRALS PROGRAMMED BY
        KAZUYA ISHIMURA (INSTITUTE FOR MOLECULAR SCIENCE).
     S,P,D,F,G SHELL TO TOTAL QUARTET ANGULAR MOMENTUM SUM 5,
        ERIC PROGRAM BY GRAHAM FLETCHER (ELORET AND NASA ADVANCED
        SUPERCOMPUTING DIVISION, AMES RESEARCH CENTER).
     S,P,D,F,G,L SHELL GENERAL RYS QUADRATURE PROGRAMMED BY
        MICHEL DUPUIS (PACIFIC NORTHWEST NATIONAL LABORATORY).

          --------------------
          2 ELECTRON INTEGRALS
          --------------------

 THE -PK- OPTION IS OFF, THE INTEGRALS ARE NOT IN SUPERMATRIX FORM.
 STORING   15000 INTEGRALS/RECORD ON DISK, USING 12 BYTES/INTEGRAL.
 TWO ELECTRON INTEGRAL EVALUATION REQUIRES   89821 WORDS OF MEMORY.
 SCHWARZ INEQUALITY OVERHEAD:      1797 INTEGRALS, T=        0.00
 II,JST,KST,LST =  1  1  1  1 NREC =         1 INTLOC =    1
 II,JST,KST,LST =  2  1  1  1 NREC =         1 INTLOC =    2
 II,JST,KST,LST =  3  1  1  1 NREC =         1 INTLOC =   34
 II,JST,KST,LST =  4  1  1  1 NREC =         1 INTLOC =  143
 II,JST,KST,LST =  5  1  1  1 NREC =         1 INTLOC = 1364
 II,JST,KST,LST =  6  1  1  1 NREC =         1 INTLOC = 1960
 II,JST,KST,LST =  7  1  1  1 NREC =         1 INTLOC = 6863
 II,JST,KST,LST =  8  1  1  1 NREC =         1 INTLOC = 8482
 II,JST,KST,LST =  9  1  1  1 NREC =         2 INTLOC = 5906
 II,JST,KST,LST = 10  1  1  1 NREC =         2 INTLOC = 9699
 II,JST,KST,LST = 11  1  1  1 NREC =         4 INTLOC = 5059
 II,JST,KST,LST = 12  1  1  1 NREC =         4 INTLOC =12171
 II,JST,KST,LST = 13  1  1  1 NREC =         7 INTLOC =12301
 II,JST,KST,LST = 14  1  1  1 NREC =         8 INTLOC = 8807
 II,JST,KST,LST = 15  1  1  1 NREC =        13 INTLOC = 6477
 II,JST,KST,LST = 16  1  1  1 NREC =        14 INTLOC = 8886
 II,JST,KST,LST = 17  1  1  1 NREC =        21 INTLOC =12684
 II,JST,KST,LST = 18  1  1  1 NREC =        23 INTLOC = 8826
 II,JST,KST,LST = 19  1  1  1 NREC =        34 INTLOC = 1796
 II,JST,KST,LST = 20  1  1  1 NREC =        35 INTLOC =12793
 II,JST,KST,LST = 21  1  1  1 NREC =        48 INTLOC = 2118
 II,JST,KST,LST = 22  1  1  1 NREC =        51 INTLOC =13115
 II,JST,KST,LST = 23  1  1  1 NREC =        56 INTLOC = 2522
 II,JST,KST,LST = 24  1  1  1 NREC =        60 INTLOC = 6923
 II,JST,KST,LST = 25  1  1  1 NREC =        65 INTLOC = 6001
 II,JST,KST,LST = 26  1  1  1 NREC =        70 INTLOC = 7026
 II,JST,KST,LST = 27  1  1  1 NREC =        75 INTLOC =14034
 II,JST,KST,LST = 28  1  1  1 NREC =        81 INTLOC = 9375
 II,JST,KST,LST = 29  1  1  1 NREC =        87 INTLOC = 7782
 II,JST,KST,LST = 30  1  1  1 NREC =        93 INTLOC =10933
 SCHWARZ INEQUALITY TEST SKIPPED       24197 INTEGRAL BLOCKS.
 TOTAL NUMBER OF NONZERO TWO-ELECTRON INTEGRALS =             1488686
        100 INTEGRAL RECORDS WERE STORED ON DISK FILE  8.
  ...... END OF TWO-ELECTRON INTEGRALS .....
 STEP CPU TIME =     0.30 TOTAL CPU TIME =          0.4 (      0.0 MIN)
 TOTAL WALL CLOCK TIME=          0.5 SECONDS, CPU UTILIZATION IS    80.00%

          --------------------------
                 RHF SCF CALCULATION
          --------------------------

     NUCLEAR ENERGY =       509.6733360542
     MAXIT =   30     NPUNCH=    2
     EXTRAP=T  DAMP=F  SHIFT=F  RSTRCT=F  DIIS=F  DEM=F  SOSCF=T
     DENSITY MATRIX CONV=  1.00E-05
     SOSCF WILL OPTIMIZE     864 ORBITAL ROTATIONS, SOGTOL=   0.250
     MEMORY REQUIRED FOR RHF ITERS=     59496 WORDS.

 ITER EX DEM     TOTAL ENERGY        E CHANGE  DENSITY CHANGE     ORB. GRAD
   1  0  0     -415.5233188337  -415.5233188337   0.524936579   0.000000000
          ---------------START SECOND ORDER SCF---------------
   2  1  0     -416.0288470103    -0.5055281766   0.303059541   0.064718277
   3  2  0     -416.0582519839    -0.0294049736   0.144246634   0.049268400
   4  3  0     -416.0921771439    -0.0339251601   0.019768705   0.007298131
   5  4  0     -416.0930434295    -0.0008662856   0.004532077   0.002939058
   6  5  0     -416.0931515080    -0.0001080785   0.002028851   0.000763349
   7  6  0     -416.0931640452    -0.0000125372   0.000643387   0.000261628
   8  7  0     -416.0931658994    -0.0000018542   0.000206776   0.000073019
   9  8  0     -416.0931660769    -0.0000001775   0.000131237   0.000023570
  10  9  0     -416.0931661086    -0.0000000318   0.000055145   0.000011426
  11 10  0     -416.0931661137    -0.0000000051   0.000023484   0.000003472
  12 11  0     -416.0931661147    -0.0000000010   0.000009139   0.000001376
  13 12  0     -416.0931661148    -0.0000000001   0.000004853   0.000000513

          -----------------
          DENSITY CONVERGED
          -----------------
     TIME TO FORM FOCK OPERATORS=       0.3 SECONDS (       0.0 SEC/ITER)
     TIME TO SOLVE SCF EQUATIONS=       0.0 SECONDS (       0.0 SEC/ITER)

 FINAL RHF ENERGY IS     -416.0931661148 AFTER  13 ITERATIONS

          ------------
          EIGENVECTORS
          ------------

                      1          2          3          4          5
                  -20.2612   -11.1181   -11.0543   -11.0493   -11.0456
                     A          A          A          A          A   
    1  C  1  S   -0.000000   0.000023  -0.030496  -0.005700  -0.084389
    2  C  1  S    0.000003  -0.000004  -0.003830   0.000016  -0.002961
    3  C  1  X    0.000001   0.000005  -0.002209  -0.000217   0.000118
    4  C  1  Y   -0.000002   0.000014  -0.000320  -0.000053  -0.000104
    5  C  1  Z   -0.000001  -0.000001  -0.001053  -0.000213  -0.000051
    6  C  2  S   -0.000000   0.000015  -0.000572   0.000062   0.003854
    7  C  2  S    0.000010  -0.000030   0.000351   0.000059  -0.006050
    8  C  2  X   -0.000004   0.000046   0.000185   0.000042   0.000530
    9  C  2  Y    0.000001  -0.000000   0.000012   0.000044  -0.003403
   10  C  2  Z    0.000009  -0.000043  -0.000159  -0.000001  -0.003068
   11  C  3  S   -0.000005  -0.000222  -0.000699   0.000653   0.958744
   12  C  3  S   -0.000000   0.000304  -0.000021   0.000046   0.035530
   13  C  3  X    0.000027  -0.000237  -0.000067   0.000000  -0.000522
   14  C  3  Y    0.000026  -0.000002   0.000003   0.000023  -0.000358
   15  C  3  Z    0.000027  -0.000128   0.000037   0.000015  -0.000765
   16  C  4  S   -0.000024  -0.001607  -0.004049  -0.005413  -0.240149
   17  C  4  S    0.000270  -0.005398  -0.000068  -0.000229  -0.011269
   18  C  4  X   -0.000114  -0.000874   0.000011  -0.000072   0.001766
   19  C  4  Y    0.000296  -0.003820  -0.000032  -0.000035   0.000338
   20  C  4  Z    0.000357   0.000952   0.000188   0.000157   0.000975
   21  C  5  S    0.000004  -0.000277   0.003951  -0.001148  -0.002008
   22  C  5  S    0.000033   0.000070  -0.006881  -0.000015   0.001794
   23  C  5  X   -0.000048  -0.000021  -0.000807  -0.000082  -0.000643
   24  C  5  Y   -0.000038  -0.000018  -0.000231  -0.000086   0.000880
   25  C  5  Z    0.000038  -0.000006   0.004489   0.000081   0.000522
   26  C  6  S    0.000003  -0.000254   0.991336   0.024238  -0.003042
   27  C  6  S    0.000007  -0.000064   0.036233  -0.004858   0.000113
   28  C  6  X    0.000021   0.000004   0.001119  -0.000867  -0.000163
   29  C  6  Y   -0.000029  -0.000103   0.000538  -0.003853  -0.000028
   30  C  6  Z   -0.000021  -0.000036   0.001227   0.001279  -0.000079
   31  C  7  S    0.000005  -0.000272  -0.023443   0.991729  -0.002392
   32  C  7  S    0.000054   0.000111  -0.006871   0.035857  -0.000057
   33  C  7  X    0.000020  -0.000034   0.000770  -0.000425  -0.000019
   34  C  7  Y    0.000065  -0.000059   0.003910   0.001383  -0.000016
   35  C  7  Z   -0.000035   0.000059  -0.001659   0.000841   0.000042
   36  C  8  S   -0.000025  -0.001005  -0.001146   0.019706   0.000524
   37  C  8  S    0.000270  -0.005689   0.000345  -0.007398   0.000039
   38  C  8  X   -0.000049   0.001795   0.000021  -0.000963  -0.000052
   39  C  8  Y    0.000479   0.000060  -0.000183   0.003746  -0.000008
   40  C  8  Z    0.000178  -0.003713   0.000020   0.002430  -0.000008
   41  C  9  S    0.000548   0.992564   0.000267   0.000342  -0.000395
   42  C  9  S   -0.007195   0.032729  -0.000008   0.000149   0.001519
   43  C  9  X    0.001360  -0.000126  -0.000034  -0.000027  -0.000214
   44  C  9  Y   -0.005108   0.000400   0.000072   0.000134  -0.001001
   45  C  9  Z   -0.003576   0.000075   0.000119   0.000068   0.000347
   46  O 10  S    0.994267   0.000162   0.000005   0.000013  -0.000003
   47  O 10  S    0.025993  -0.005790  -0.000052  -0.000115  -0.000031
   48  O 10  X    0.001187  -0.000362  -0.000008  -0.000020  -0.000023
   49  O 10  Y   -0.004489   0.001371   0.000031   0.000039   0.000035
   50  O 10  Z   -0.003151   0.000985   0.000013   0.000048  -0.000030
   51  H 11  S   -0.000002   0.000002   0.000358  -0.000012   0.000490
   52  H 12  S   -0.000002   0.000006   0.000363  -0.000952   0.000558
   53  H 13  S   -0.000002   0.000006  -0.000001   0.000001   0.000038
   54  H 14  S    0.000080  -0.001059   0.000005  -0.000042  -0.006737
   55  H 15  S   -0.000006  -0.000035  -0.000017  -0.000014  -0.006697
   56  H 16  S   -0.000179  -0.000014  -0.000090  -0.000023   0.001819
   57  H 17  S   -0.000020  -0.000052   0.000080  -0.000080  -0.000014
   58  H 18  S   -0.000016  -0.000026  -0.006924  -0.000128   0.000018
   59  H 19  S   -0.000021  -0.000038   0.000241  -0.006826   0.000025
   60  H 20  S   -0.000192   0.000012  -0.000037   0.000011   0.000014

                      6          7          8          9         10
                  -11.0452   -11.0444   -11.0258   -11.0184   -11.0121
                     A          A          A          A          A   
    1  C  1  S    0.987954   0.016883  -0.000217   0.000974  -0.003466
    2  C  1  S    0.035881   0.000648   0.000047   0.000289  -0.007236
    3  C  1  X   -0.001667  -0.000071   0.000009  -0.000071   0.002877
    4  C  1  Y    0.000022  -0.000061   0.000029   0.000034   0.000103
    5  C  1  Z   -0.000175  -0.000063  -0.000045  -0.000054  -0.003640
    6  C  2  S    0.004584   0.000519   0.000105  -0.018463   0.991933
    7  C  2  S   -0.007342  -0.001673   0.000028  -0.001166   0.036727
    8  C  2  X   -0.002799   0.000052   0.000008  -0.000632   0.002336
    9  C  2  Y   -0.000361  -0.000789  -0.000002   0.000012   0.000460
   10  C  2  Z    0.003288  -0.000564   0.000005  -0.000319   0.000904
   11  C  3  S    0.077779   0.243283  -0.000271   0.000891  -0.003416
   12  C  3  S    0.003042   0.006217   0.000087   0.000298  -0.007232
   13  C  3  X   -0.000119  -0.002507  -0.000024  -0.000065  -0.000347
   14  C  3  Y   -0.000050  -0.000229   0.000077   0.000011   0.003605
   15  C  3  Z    0.000038  -0.001247   0.000003  -0.000032   0.002898
   16  C  4  S   -0.037097   0.961903   0.001491  -0.004609   0.000545
   17  C  4  S   -0.001528   0.034103   0.000248  -0.007296   0.000019
   18  C  4  X    0.000138   0.002240   0.000027  -0.002390  -0.000034
   19  C  4  Y    0.000022  -0.000333   0.000016   0.003401   0.000128
   20  C  4  Z    0.000126   0.000423   0.000058   0.001983   0.000093
   21  C  5  S   -0.001015   0.005025  -0.004280   0.991918   0.018702
   22  C  5  S    0.000149  -0.006689  -0.000268   0.036682   0.000198
   23  C  5  X   -0.000108   0.002283  -0.000030  -0.002103   0.000568
   24  C  5  Y    0.000130  -0.003216  -0.000207   0.000439   0.000124
   25  C  5  Z    0.000115  -0.001955   0.000078  -0.001209   0.000217
   26  C  6  S    0.031294   0.004835   0.000710  -0.003140   0.000405
   27  C  6  S   -0.001560   0.000170   0.000406  -0.007218   0.000020
   28  C  6  X    0.002315   0.000193   0.000096   0.000781   0.000076
   29  C  6  Y    0.000352  -0.000155   0.000086   0.000304  -0.000010
   30  C  6  Z    0.001004  -0.000021  -0.000094  -0.004521  -0.000138
   31  C  7  S    0.004720   0.005150  -0.019187   0.001212  -0.000076
   32  C  7  S    0.000131   0.000116  -0.008919   0.000147   0.000008
   33  C  7  X   -0.000026   0.000097   0.000977  -0.000032  -0.000044
   34  C  7  Y    0.000038   0.000021  -0.003864  -0.000060   0.000014
   35  C  7  Z   -0.000065  -0.000144  -0.002502  -0.000169   0.000002
   36  C  8  S    0.000343  -0.001221   0.991968   0.004375  -0.000031
   37  C  8  S    0.000019   0.000065   0.036541   0.000092  -0.000014
   38  C  8  X   -0.000021   0.000016   0.000400  -0.000024  -0.000001
   39  C  8  Y   -0.000004   0.000043  -0.001653   0.000163   0.000004
   40  C  8  Z   -0.000014   0.000017  -0.000853  -0.000112  -0.000001
   41  C  9  S   -0.000095   0.002579   0.001994   0.000339  -0.000013
   42  C  9  S    0.000236  -0.005469  -0.005878   0.000129  -0.000010
   43  C  9  X   -0.000036   0.000732  -0.001857  -0.000143  -0.000020
   44  C  9  Y   -0.000153   0.003784  -0.000234   0.000045  -0.000002
   45  C  9  Z    0.000054  -0.001305   0.003746   0.000068  -0.000046
   46  O 10  S    0.000001  -0.000022  -0.000022   0.000009   0.000000
   47  O 10  S   -0.000010   0.000244   0.000249  -0.000084   0.000005
   48  O 10  X   -0.000005  -0.000028   0.000098   0.000020   0.000008
   49  O 10  Y    0.000010  -0.000218  -0.000003   0.000043  -0.000003
   50  O 10  Z   -0.000004   0.000065  -0.000199   0.000020   0.000000
   51  H 11  S   -0.006894  -0.000160  -0.000010  -0.000031   0.000107
   52  H 12  S   -0.006912  -0.000132  -0.000105  -0.000057   0.000014
   53  H 13  S    0.000051   0.000009  -0.000004   0.000141  -0.007002
   54  H 14  S   -0.000598  -0.001565  -0.000210  -0.000044   0.000020
   55  H 15  S   -0.000653  -0.001563  -0.000018  -0.000040   0.000105
   56  H 16  S    0.000252  -0.006695  -0.000099   0.000120  -0.000032
   57  H 17  S   -0.000001   0.000068  -0.000031  -0.006920  -0.000118
   58  H 18  S   -0.000085  -0.000155  -0.000094   0.000106  -0.000042
   59  H 19  S    0.000012  -0.000092   0.000266  -0.000106  -0.000003
   60  H 20  S   -0.000002  -0.000067  -0.006868  -0.000089   0.000001

                     11         12         13         14         15
                   -1.3129    -1.0917    -1.0182    -0.9718    -0.9334
                     A          A          A          A          A   
    1  C  1  S   -0.000703  -0.056424  -0.102741   0.069566  -0.076332
    2  C  1  S    0.001711   0.149981   0.276488  -0.191482   0.219006
    3  C  1  X    0.000080  -0.001375  -0.060569   0.031801   0.026139
    4  C  1  Y    0.000267   0.008097   0.000188  -0.005193  -0.005159
    5  C  1  Z    0.000451   0.028151   0.055504  -0.015160  -0.006413
    6  C  2  S   -0.001044  -0.058416  -0.147817   0.066223   0.012176
    7  C  2  S    0.002308   0.145766   0.383139  -0.175414  -0.032727
    8  C  2  X    0.000522   0.027617   0.042979  -0.022005   0.038540
    9  C  2  Y    0.000768   0.020184   0.045159  -0.007176  -0.046226
   10  C  2  Z    0.000529   0.000253   0.003726   0.026163  -0.076972
   11  C  3  S   -0.003134  -0.051104  -0.114857   0.018422   0.091594
   12  C  3  S    0.007673   0.135737   0.310154  -0.047013  -0.260649
   13  C  3  X    0.002147   0.017364   0.000139   0.022107  -0.002109
   14  C  3  Y    0.001524  -0.017453  -0.056048   0.026457  -0.004992
   15  C  3  Z    0.000370  -0.016275  -0.053866   0.039509  -0.004938
   16  C  4  S   -0.021439  -0.087681  -0.008637  -0.125939   0.084104
   17  C  4  S    0.053622   0.230014   0.026258   0.348110  -0.241685
   18  C  4  X    0.006397   0.031179  -0.030051   0.052345   0.014624
   19  C  4  Y    0.025444  -0.023539  -0.011976  -0.051087  -0.054589
   20  C  4  Z   -0.007356  -0.041509   0.002037  -0.016369  -0.001141
   21  C  5  S   -0.005571  -0.108608   0.008436  -0.128282  -0.047927
   22  C  5  S    0.012749   0.273116  -0.021871   0.342553   0.130765
   23  C  5  X   -0.002499  -0.024404  -0.017906  -0.045117   0.040314
   24  C  5  Y    0.005301   0.043318  -0.008484   0.046018  -0.050967
   25  C  5  Z    0.000660  -0.043331   0.016234   0.021244  -0.108117
   26  C  6  S   -0.003225  -0.112731   0.031043  -0.020123  -0.131095
   27  C  6  S    0.007685   0.297004  -0.082815   0.051512   0.372700
   28  C  6  X   -0.000274  -0.007496  -0.032103  -0.009550   0.005387
   29  C  6  Y    0.002304   0.039316  -0.043533  -0.045353  -0.021428
   30  C  6  Z    0.001769   0.041025  -0.000082   0.099561   0.015086
   31  C  7  S   -0.006025  -0.103318   0.093463   0.105314  -0.008338
   32  C  7  S    0.014334   0.263304  -0.245727  -0.283105   0.026812
   33  C  7  X   -0.002150  -0.025969   0.010891   0.012701   0.002587
   34  C  7  Y    0.004328  -0.001963  -0.041251  -0.076037  -0.128239
   35  C  7  Z    0.004831   0.048869  -0.039394  -0.018853  -0.023366
   36  C  8  S   -0.021743  -0.081432   0.091462   0.105533   0.086811
   37  C  8  S    0.052869   0.204540  -0.237296  -0.279869  -0.235748
   38  C  8  X   -0.012292   0.001559  -0.010717  -0.019159   0.015732
   39  C  8  Y   -0.002526  -0.062061   0.054191   0.049062   0.006634
   40  C  8  Z    0.024674  -0.012530   0.022101   0.052755  -0.028129
   41  C  9  S   -0.127581  -0.035758   0.022140  -0.008440   0.070169
   42  C  9  S    0.295700   0.099324  -0.063442   0.023617  -0.207171
   43  C  9  X   -0.033526   0.016816  -0.031274  -0.032749  -0.017156
   44  C  9  Y    0.122791  -0.075087   0.011542  -0.074517   0.100055
   45  C  9  Z    0.086013  -0.049930   0.051955   0.064780   0.068760
   46  O 10  S   -0.214497   0.038236  -0.015264   0.006392  -0.049563
   47  O 10  S    0.749420  -0.142701   0.058509  -0.024989   0.198098
   48  O 10  X    0.034740  -0.002047  -0.005922  -0.008235  -0.001496
   49  O 10  Y   -0.132833   0.004724  -0.003920  -0.017167   0.021089
   50  O 10  Z   -0.093368   0.004383   0.006772   0.017771   0.013037
   51  H 11  S    0.000185   0.028696   0.060138  -0.048130   0.070685
   52  H 12  S    0.000422   0.037080   0.059982  -0.057594   0.064814
   53  H 13  S    0.000306   0.028997   0.087660  -0.042344  -0.008033
   54  H 14  S    0.003455   0.031873   0.071636  -0.011796  -0.082291
   55  H 15  S    0.001284   0.025215   0.068214  -0.006575  -0.078883
   56  H 16  S    0.008816   0.040033   0.010970   0.089827  -0.070815
   57  H 17  S    0.001521   0.051063  -0.000182   0.088614   0.040567
   58  H 18  S    0.000820   0.055683  -0.016065   0.008970   0.119131
   59  H 19  S    0.001622   0.049412  -0.055413  -0.078125   0.014406
   60  H 20  S    0.008802   0.035058  -0.052352  -0.075070  -0.064688

                     16         17         18         19         20
                   -0.8550    -0.7742    -0.7531    -0.7105    -0.6556
                     A          A          A          A          A   
    1  C  1  S   -0.132738   0.035946  -0.009408   0.068970   0.004021
    2  C  1  S    0.385017  -0.111690   0.033981  -0.220756  -0.011408
    3  C  1  X   -0.041365  -0.042953   0.059474  -0.071238   0.039677
    4  C  1  Y   -0.021872  -0.031291   0.016294  -0.057557  -0.135900
    5  C  1  Z   -0.031945   0.080620  -0.040176   0.174177  -0.038849
    6  C  2  S   -0.000760  -0.055337   0.046546  -0.115117  -0.004077
    7  C  2  S    0.002076   0.165214  -0.140853   0.355050   0.015594
    8  C  2  X    0.077179  -0.012369  -0.000196  -0.020941  -0.040453
    9  C  2  Y   -0.084207  -0.029200   0.052460  -0.134739  -0.121971
   10  C  2  Z   -0.157634   0.031326  -0.002407   0.061529   0.048831
   11  C  3  S    0.132129   0.014092  -0.036901   0.067771   0.001452
   12  C  3  S   -0.383383  -0.048097   0.114159  -0.217293  -0.003253
   13  C  3  X    0.053817  -0.014721  -0.018127   0.038844  -0.048172
   14  C  3  Y    0.004906  -0.077691   0.088976  -0.175698  -0.036824
   15  C  3  Z    0.000099  -0.047659   0.006500  -0.062002   0.120626
   16  C  4  S   -0.062515   0.081796   0.041382  -0.015600  -0.028200
   17  C  4  S    0.180623  -0.253420  -0.121196   0.049807   0.097393
   18  C  4  X    0.055511   0.046457  -0.029137   0.035073  -0.080424
   19  C  4  Y    0.039127  -0.108467   0.179918   0.119530   0.028850
   20  C  4  Z    0.010242  -0.080689  -0.073321  -0.006787   0.210871
   21  C  5  S    0.006543  -0.095481   0.057778   0.047488   0.026673
   22  C  5  S   -0.018821   0.283219  -0.175350  -0.145303  -0.080789
   23  C  5  X   -0.035583   0.022471   0.064730   0.033463   0.033182
   24  C  5  Y    0.042186  -0.090318   0.004405   0.078165  -0.145459
   25  C  5  Z    0.075257  -0.045346  -0.158639  -0.050721   0.067128
   26  C  6  S    0.071513   0.007696  -0.084261  -0.031723  -0.032986
   27  C  6  S   -0.206930  -0.028991   0.259972   0.098725   0.110882
   28  C  6  X   -0.060656  -0.032089   0.024682   0.060083   0.116567
   29  C  6  Y   -0.018643  -0.092502  -0.057061   0.056752  -0.226983
   30  C  6  Z   -0.005495   0.174741  -0.020560  -0.034237  -0.147885
   31  C  7  S    0.052009   0.081138   0.082625  -0.019666   0.026250
   32  C  7  S   -0.151061  -0.246696  -0.244740   0.062692  -0.080048
   33  C  7  X   -0.017354  -0.019444  -0.048213   0.014453   0.089699
   34  C  7  Y    0.064207   0.108342  -0.138769  -0.103376   0.000138
   35  C  7  Z    0.016498   0.089162   0.078740   0.020495  -0.139562
   36  C  8  S   -0.036954  -0.088604  -0.001482   0.039499  -0.032413
   37  C  8  S    0.106526   0.263461   0.016026  -0.118982   0.113907
   38  C  8  X   -0.028898  -0.015006  -0.103833  -0.019777   0.037202
   39  C  8  Y    0.026506   0.100238   0.054234  -0.074607   0.220457
   40  C  8  Z    0.059883   0.060442   0.205761   0.073074  -0.014506
   41  C  9  S   -0.062141  -0.000514  -0.107367  -0.051608  -0.014040
   42  C  9  S    0.189394   0.001191   0.343323   0.167564   0.044895
   43  C  9  X    0.028513   0.093403   0.026834   0.004495   0.005252
   44  C  9  Y   -0.077598   0.126145  -0.053221  -0.091886   0.051732
   45  C  9  Z   -0.040764  -0.149537  -0.114383   0.040129   0.027551
   46  O 10  S    0.036103  -0.001260   0.058953   0.023324   0.029164
   47  O 10  S   -0.149814   0.005709  -0.258961  -0.104720  -0.139342
   48  O 10  X    0.012602   0.045673   0.025341   0.008690   0.028529
   49  O 10  Y   -0.030212   0.065375  -0.071297  -0.077647  -0.062228
   50  O 10  Z   -0.016962  -0.073149  -0.090109   0.007547  -0.049559
   51  H 11  S    0.143525  -0.053854   0.022820  -0.121306   0.100459
   52  H 12  S    0.122390  -0.091285   0.032268  -0.183333  -0.074236
   53  H 13  S    0.000496   0.085895  -0.083319   0.236773   0.105183
   54  H 14  S   -0.119942  -0.049990   0.100629  -0.174441  -0.063074
   55  H 15  S   -0.142616  -0.032269   0.045644  -0.121642   0.094366
   56  H 16  S    0.054687  -0.139332  -0.095835   0.001010   0.195689
   57  H 17  S   -0.009146   0.143507  -0.110936  -0.115463   0.078716
   58  H 18  S   -0.075633  -0.027038   0.138641   0.039374   0.260309
   59  H 19  S   -0.060628  -0.142229  -0.155823   0.013161   0.080788
   60  H 20  S    0.034300   0.139454  -0.022087  -0.111476   0.195621

                     21         22         23         24         25
                   -0.6060    -0.5917    -0.5868    -0.5546    -0.5419
                     A          A          A          A          A   
    1  C  1  S   -0.015522  -0.007150  -0.001088   0.000318   0.004290
    2  C  1  S    0.055526   0.020212  -0.001519  -0.002841  -0.022788
    3  C  1  X    0.071852  -0.027477  -0.076043  -0.007328  -0.102006
    4  C  1  Y   -0.236792  -0.100621  -0.099806  -0.241436  -0.177120
    5  C  1  Z   -0.149929  -0.093681   0.119860   0.082624   0.148009
    6  C  2  S    0.027094   0.005959  -0.004760   0.012581  -0.007378
    7  C  2  S   -0.083026  -0.016317   0.014691  -0.041399   0.023908
    8  C  2  X   -0.087806  -0.070149   0.069853   0.072899   0.079439
    9  C  2  Y   -0.224698  -0.089915  -0.020751  -0.115437  -0.057825
   10  C  2  Z    0.070785  -0.014455  -0.126662  -0.072834  -0.175279
   11  C  3  S   -0.014167  -0.009102   0.004539  -0.004195   0.001652
   12  C  3  S    0.051132   0.029060  -0.011896   0.023737  -0.001142
   13  C  3  X   -0.137621  -0.091776   0.050385   0.064867   0.055508
   14  C  3  Y   -0.013440   0.071702   0.173149   0.179682   0.253884
   15  C  3  Z    0.269347   0.046336  -0.067633   0.012323  -0.093241
   16  C  4  S    0.001464   0.054913   0.012194  -0.020984  -0.006495
   17  C  4  S   -0.007503  -0.185645  -0.036653   0.072031   0.021583
   18  C  4  X    0.002138   0.066641  -0.072281   0.045336  -0.038645
   19  C  4  Y   -0.012573   0.084780   0.234344  -0.065376  -0.107809
   20  C  4  Z   -0.011914  -0.107183   0.020360  -0.246033   0.125026
   21  C  5  S    0.005235  -0.055770   0.000232  -0.009398   0.017435
   22  C  5  S   -0.020171   0.190098   0.000705   0.026127  -0.056484
   23  C  5  X    0.004997   0.068078   0.103481  -0.109528  -0.007914
   24  C  5  Y    0.082933  -0.189816  -0.137891   0.241329  -0.085390
   25  C  5  Z   -0.065607   0.098241  -0.165642  -0.090842   0.187858
   26  C  6  S   -0.003884   0.056287  -0.007232  -0.000610   0.005314
   27  C  6  S    0.011912  -0.196117   0.019994   0.000035  -0.014003
   28  C  6  X   -0.032130   0.021404  -0.003881  -0.058283   0.107126
   29  C  6  Y    0.064912   0.015893  -0.169376   0.022180   0.015360
   30  C  6  Z    0.071754   0.039975   0.164819   0.054917  -0.171905
   31  C  7  S   -0.000735  -0.046259   0.006346   0.007856  -0.019776
   32  C  7  S   -0.008067   0.157014  -0.040348  -0.016207   0.065759
   33  C  7  X   -0.079348   0.092716  -0.003064   0.117243  -0.032855
   34  C  7  Y    0.057921   0.008052   0.254355  -0.072546  -0.067671
   35  C  7  Z    0.214201  -0.166428   0.089037  -0.235946   0.118221
   36  C  8  S   -0.014226   0.049927  -0.020051   0.018413  -0.005405
   37  C  8  S    0.034820  -0.162994   0.053662  -0.052178   0.015892
   38  C  8  X    0.018362  -0.048983   0.099288   0.012165  -0.079896
   39  C  8  Y   -0.165706  -0.130998  -0.101654   0.246138  -0.167618
   40  C  8  Z   -0.019646   0.091589  -0.213773  -0.011958   0.138915
   41  C  9  S    0.033246  -0.086019   0.007428   0.011691   0.020777
   42  C  9  S   -0.113892   0.299711  -0.022857  -0.038550  -0.070852
   43  C  9  X    0.023400  -0.015664  -0.164908  -0.048985   0.065340
   44  C  9  Y   -0.053473   0.021482  -0.180215  -0.007257   0.055795
   45  C  9  Z   -0.014115   0.027974   0.202355  -0.045490  -0.225188
   46  O 10  S   -0.034088   0.054692  -0.002600  -0.009696  -0.028589
   47  O 10  S    0.167495  -0.269453   0.012579   0.049425   0.148050
   48  O 10  X   -0.029417   0.044781  -0.148494  -0.029225   0.008250
   49  O 10  Y    0.096030  -0.214876  -0.162630   0.087773   0.259765
   50  O 10  Z    0.100785  -0.136865   0.201556  -0.037984  -0.062800
   51  H 11  S    0.248362   0.114453   0.010895   0.134125   0.045020
   52  H 12  S   -0.070935  -0.011126  -0.128247  -0.209645  -0.208427
   53  H 13  S    0.154317   0.069443  -0.028284   0.026781  -0.012885
   54  H 14  S   -0.075592   0.058761   0.148267   0.144908   0.233737
   55  H 15  S    0.255345   0.075383  -0.086566  -0.034772  -0.112996
   56  H 16  S   -0.002038  -0.186760  -0.003476  -0.174465   0.127951
   57  H 17  S   -0.085260   0.263973   0.043195  -0.210052   0.111731
   58  H 18  S   -0.065086  -0.101101   0.049069  -0.052898   0.098195
   59  H 19  S   -0.176769   0.230060  -0.072057   0.212579  -0.076621
   60  H 20  S   -0.086882  -0.209202   0.025300   0.169470  -0.176579

                     26         27         28         29         30
                   -0.5156    -0.5060    -0.4866    -0.4785    -0.4506
                     A          A          A          A          A   
    1  C  1  S    0.010054  -0.008404  -0.003789  -0.030589   0.007156
    2  C  1  S   -0.036979   0.017062   0.017681   0.106789  -0.025494
    3  C  1  X    0.027081  -0.220572   0.090531  -0.111502   0.049110
    4  C  1  Y   -0.011699   0.019320  -0.279103   0.016645  -0.099884
    5  C  1  Z   -0.201551  -0.021852  -0.030059   0.263435  -0.160914
    6  C  2  S   -0.009519  -0.017084   0.007639   0.007274  -0.002195
    7  C  2  S    0.033605   0.060542  -0.032976  -0.032402   0.007497
    8  C  2  X   -0.145695  -0.099736   0.055486   0.226605  -0.083010
    9  C  2  Y    0.101469   0.029229   0.280584   0.121568   0.098956
   10  C  2  Z    0.119055  -0.212257   0.117579  -0.184098   0.135979
   11  C  3  S   -0.009837  -0.002885  -0.031995  -0.005301  -0.006822
   12  C  3  S    0.026613   0.000508   0.110504   0.023882   0.022029
   13  C  3  X   -0.019939  -0.214641   0.081843  -0.053801   0.072828
   14  C  3  Y   -0.084053   0.127694  -0.196589  -0.145548  -0.085042
   15  C  3  Z   -0.178448  -0.036796  -0.180026   0.271279  -0.165818
   16  C  4  S   -0.011531   0.008577  -0.001372  -0.000468   0.003653
   17  C  4  S    0.035815  -0.042934   0.004779   0.008663  -0.004342
   18  C  4  X    0.188706   0.205544   0.028064  -0.031751  -0.157400
   19  C  4  Y    0.079199   0.009453  -0.134761   0.059710   0.162129
   20  C  4  Z   -0.172511   0.155326   0.001013  -0.029453   0.239257
   21  C  5  S   -0.004799  -0.021113   0.005592   0.007888  -0.000225
   22  C  5  S    0.018954   0.074328  -0.022294  -0.028144   0.000928
   23  C  5  X    0.042615   0.202204  -0.068570  -0.003786   0.162403
   24  C  5  Y    0.051432   0.156855   0.094719  -0.038184  -0.125773
   25  C  5  Z    0.146344  -0.007886   0.018579  -0.083678  -0.294839
   26  C  6  S    0.022074  -0.006611   0.002823   0.011556  -0.004972
   27  C  6  S   -0.082692   0.013498  -0.006783  -0.043249   0.007817
   28  C  6  X    0.165451   0.189315  -0.003310  -0.029791  -0.063126
   29  C  6  Y   -0.188858   0.135218  -0.072574  -0.161984   0.076650
   30  C  6  Z   -0.121388   0.127619  -0.021170   0.065184   0.314510
   31  C  7  S    0.019230   0.000885  -0.011858   0.002254  -0.003211
   32  C  7  S   -0.072371   0.001673   0.030007  -0.011436   0.021364
   33  C  7  X    0.092107   0.155710   0.043463   0.124008   0.094675
   34  C  7  Y    0.072909  -0.107444   0.122533   0.111049  -0.042930
   35  C  7  Z   -0.052286   0.093967   0.104064  -0.118768  -0.124897
   36  C  8  S   -0.010107   0.003952   0.000975   0.003724   0.011157
   37  C  8  S    0.036163  -0.009160  -0.014304  -0.015825  -0.036091
   38  C  8  X    0.034559   0.186692   0.112119   0.013350  -0.049540
   39  C  8  Y   -0.033439   0.104780  -0.136843  -0.092790   0.043588
   40  C  8  Z    0.053210   0.058815  -0.037922   0.125401   0.139795
   41  C  9  S    0.006461   0.008414  -0.007583  -0.014746   0.000396
   42  C  9  S   -0.014433  -0.034046   0.021437   0.057969   0.001198
   43  C  9  X    0.113196   0.240209   0.101281   0.169314   0.050860
   44  C  9  Y   -0.294577   0.031199   0.177898  -0.104504  -0.047492
   45  C  9  Z   -0.057624   0.173559   0.152307  -0.088889  -0.169254
   46  O 10  S   -0.055820   0.009991   0.034645  -0.021413  -0.018410
   47  O 10  S    0.297710  -0.053768  -0.190431   0.119206   0.105860
   48  O 10  X   -0.049263   0.219150   0.201302   0.100223   0.003367
   49  O 10  Y    0.241356  -0.073035  -0.215314   0.193164   0.277803
   50  O 10  Z    0.311702   0.071754  -0.145478   0.080615  -0.020400
   51  H 11  S    0.102729  -0.021046   0.270395  -0.110453   0.166436
   52  H 12  S    0.067780   0.011782  -0.217610  -0.091832  -0.010048
   53  H 13  S    0.008061  -0.039235  -0.239663  -0.251703  -0.015704
   54  H 14  S    0.005980   0.094211  -0.075994  -0.244341   0.002612
   55  H 15  S   -0.109045   0.081542  -0.114211   0.277022  -0.157233
   56  H 16  S   -0.181716   0.079629   0.000207  -0.014195   0.256894
   57  H 17  S    0.031018  -0.085713  -0.092949  -0.021949  -0.012106
   58  H 18  S    0.223853  -0.056426   0.065191   0.048917  -0.232963
   59  H 19  S    0.052418  -0.023345  -0.049601   0.163881   0.174769
   60  H 20  S   -0.016228   0.105857  -0.092501  -0.129389  -0.037696

                     31         32         33         34         35
                   -0.4448    -0.4166    -0.3568    -0.3143    -0.2712
                     A          A          A          A          A   
    1  C  1  S    0.009208   0.002096  -0.005650   0.000052  -0.027301
    2  C  1  S   -0.037898   0.006782   0.006881  -0.000758   0.131674
    3  C  1  X   -0.039504   0.246268  -0.084331  -0.003518   0.342136
    4  C  1  Y    0.166054   0.067449   0.081546   0.022603   0.045529
    5  C  1  Z   -0.101380   0.073693  -0.115750  -0.023057   0.192785
    6  C  2  S   -0.002702   0.020825   0.012980   0.003309   0.006645
    7  C  2  S    0.015267  -0.073845  -0.049588  -0.010590  -0.028333
    8  C  2  X   -0.109299   0.084014   0.118360  -0.011629   0.067579
    9  C  2  Y   -0.135311  -0.181002  -0.090658  -0.016477  -0.004686
   10  C  2  Z   -0.008602   0.142760   0.061166   0.001243   0.122456
   11  C  3  S    0.014593  -0.005346  -0.011604   0.002308   0.012014
   12  C  3  S   -0.052152   0.021625   0.066247  -0.010738  -0.071767
   13  C  3  X   -0.014297   0.104386   0.327250  -0.002372  -0.239957
   14  C  3  Y    0.125615   0.169273  -0.004888   0.024921   0.029677
   15  C  3  Z   -0.010551  -0.016802   0.135683  -0.012839  -0.096097
   16  C  4  S   -0.023869   0.008950  -0.015859   0.031822   0.012604
   17  C  4  S    0.087572  -0.029135   0.085478  -0.144797  -0.069307
   18  C  4  X    0.019994  -0.047091  -0.278828  -0.074367   0.280448
   19  C  4  Y   -0.125755   0.021145   0.002393  -0.309078   0.092668
   20  C  4  Z    0.019856   0.007783  -0.179511   0.097985   0.133186
   21  C  5  S   -0.004608   0.017119   0.011810  -0.007295   0.001800
   22  C  5  S    0.007954  -0.063382  -0.041844   0.023274  -0.003350
   23  C  5  X   -0.022199  -0.129221  -0.026354  -0.126022   0.020540
   24  C  5  Y    0.192224  -0.114839  -0.084426   0.061958   0.034812
   25  C  5  Z   -0.140663  -0.041369  -0.001908  -0.056758   0.081287
   26  C  6  S    0.002389  -0.006456   0.018110   0.001438  -0.005910
   27  C  6  S   -0.020105   0.037294  -0.078647  -0.009212   0.050601
   28  C  6  X    0.046630  -0.250153   0.230306  -0.019310  -0.253977
   29  C  6  Y   -0.309855  -0.032263   0.073379  -0.067894  -0.038598
   30  C  6  Z    0.148739  -0.060244   0.024235   0.068112  -0.083731
   31  C  7  S    0.009998   0.003078  -0.009187   0.012260   0.006447
   32  C  7  S   -0.052108  -0.008961   0.036254  -0.044396  -0.025672
   33  C  7  X    0.060754  -0.014756   0.374701   0.168654   0.293660
   34  C  7  Y    0.327234   0.020922  -0.073750  -0.010944   0.039766
   35  C  7  Z   -0.070022  -0.034826   0.245232  -0.027309   0.117533
   36  C  8  S    0.005645  -0.000668   0.006441  -0.037099   0.005664
   37  C  8  S   -0.038449   0.002651  -0.027224   0.165555  -0.027869
   38  C  8  X   -0.001593   0.090652   0.382017  -0.021021   0.361526
   39  C  8  Y   -0.205724  -0.016946  -0.006131  -0.048978  -0.029182
   40  C  8  Z   -0.048873   0.066892   0.127849   0.325697   0.127512
   41  C  9  S    0.002636  -0.002313   0.006956  -0.001059  -0.009001
   42  C  9  S   -0.011145   0.012108  -0.025226   0.002719   0.037571
   43  C  9  X    0.007914   0.401031  -0.047824   0.034067  -0.132885
   44  C  9  Y    0.168039  -0.050808   0.016402   0.116069  -0.043702
   45  C  9  Z   -0.065295   0.169277   0.015228  -0.153190  -0.046616
   46  O 10  S    0.011116  -0.002740   0.000767   0.000306   0.000258
   47  O 10  S   -0.064638   0.016497  -0.006713  -0.001536   0.001256
   48  O 10  X    0.115391   0.431845  -0.002551  -0.374291  -0.307658
   49  O 10  Y    0.083981  -0.007239   0.050669  -0.459516   0.116287
   50  O 10  Z   -0.310545   0.243166  -0.117153   0.511812  -0.240631
   51  H 11  S   -0.110845  -0.078779  -0.008672  -0.010948  -0.072667
   52  H 12  S    0.182776   0.044852   0.124401   0.027635  -0.031392
   53  H 13  S    0.165018   0.173173   0.060639   0.018771   0.025306
   54  H 14  S    0.103169   0.160366  -0.040408   0.041101   0.069996
   55  H 15  S   -0.041590  -0.086377  -0.069295  -0.016597   0.049213
   56  H 16  S    0.069925   0.000744  -0.103232   0.110558   0.042297
   57  H 17  S   -0.248207   0.050253   0.069496  -0.113904   0.009397
   58  H 18  S    0.190361  -0.068004   0.011885   0.009177  -0.080022
   59  H 19  S    0.094888   0.022743  -0.058411   0.116495   0.009533
   60  H 20  S   -0.203959  -0.017865   0.035682  -0.120123   0.000826

                     36         37         38         39         40
                   -0.2234     0.2067     0.2159     0.3540     0.3894
                     A          A          A          A          A   
    1  C  1  S   -0.025326  -0.000452  -0.041468  -0.031129  -0.030402
    2  C  1  S    0.090296   0.028752   0.208751   0.134050   0.160003
    3  C  1  X    0.170090   0.144177   0.370627   0.353294   0.340881
    4  C  1  Y    0.018150   0.006768   0.042862  -0.024237   0.048610
    5  C  1  Z    0.107599   0.023644   0.180317   0.254496   0.104209
    6  C  2  S    0.021705  -0.018745  -0.007579   0.001261  -0.007706
    7  C  2  S   -0.105091   0.105392   0.043134  -0.009076   0.057397
    8  C  2  X    0.454931  -0.443973  -0.207000   0.048584  -0.279981
    9  C  2  Y   -0.112167   0.063448   0.050457  -0.003681   0.049520
   10  C  2  Z    0.274567  -0.275823  -0.071379   0.033655  -0.169809
   11  C  3  S   -0.030053  -0.025808   0.029761   0.040282  -0.021909
   12  C  3  S    0.113606   0.149975  -0.130225  -0.184688   0.121905
   13  C  3  X    0.253242   0.318762  -0.191472  -0.475046   0.205282
   14  C  3  Y   -0.009899   0.041040   0.012592   0.055734   0.086439
   15  C  3  Z    0.095452   0.160423  -0.054275  -0.217874   0.109551
   16  C  4  S    0.031972  -0.009135  -0.022290  -0.051465  -0.008587
   17  C  4  S   -0.123841   0.071830   0.097670   0.249609   0.063768
   18  C  4  X    0.188937  -0.212111  -0.242319  -0.484611   0.038703
   19  C  4  Y    0.001879   0.011567  -0.023924  -0.103539  -0.036202
   20  C  4  Z    0.117487  -0.069347  -0.111370  -0.236452   0.023123
   21  C  5  S   -0.022665  -0.019156  -0.006831  -0.002371   0.020654
   22  C  5  S    0.107799   0.108353   0.037507   0.013700  -0.115170
   23  C  5  X    0.497132   0.546746   0.174844   0.041391  -0.106793
   24  C  5  Y    0.195888   0.161167   0.080301  -0.016054  -0.083851
   25  C  5  Z    0.140098   0.166291   0.111426  -0.061534  -0.040157
   26  C  6  S    0.030046  -0.019816   0.009477   0.053887   0.006561
   27  C  6  S   -0.119073   0.111388  -0.017196  -0.269982  -0.014102
   28  C  6  X    0.258198  -0.290618   0.073657   0.493242   0.188631
   29  C  6  Y    0.024116  -0.037776   0.017933   0.096149   0.008709
   30  C  6  Z    0.093553  -0.162815   0.000710   0.153945   0.082544
   31  C  7  S    0.008319   0.015182   0.009063  -0.001347  -0.000999
   32  C  7  S   -0.034234  -0.073486  -0.042322   0.008452   0.007865
   33  C  7  X   -0.066836  -0.208404   0.426997  -0.384130   0.352791
   34  C  7  Y    0.042689   0.097100   0.029913   0.011085  -0.015078
   35  C  7  Z   -0.058482  -0.134617   0.178643  -0.176015   0.154962
   36  C  8  S   -0.004765  -0.007495  -0.002926   0.001411  -0.002306
   37  C  8  S    0.021405   0.033497   0.013122  -0.008381   0.012990
   38  C  8  X   -0.173122   0.269576  -0.268523   0.219195  -0.519370
   39  C  8  Y    0.003216  -0.024532   0.017583  -0.015971   0.042292
   40  C  8  Z   -0.044394   0.153435  -0.130456   0.116685  -0.257824
   41  C  9  S    0.009035   0.018635   0.003410   0.001756  -0.000268
   42  C  9  S   -0.038305  -0.089396  -0.018406  -0.011667   0.003384
   43  C  9  X    0.019119   0.094111  -0.389340   0.199520   0.546451
   44  C  9  Y    0.060298   0.098036   0.050980  -0.021262  -0.035708
   45  C  9  Z   -0.027520  -0.016900  -0.209595   0.094631   0.264051
   46  O 10  S   -0.000120  -0.002085  -0.000907  -0.001451   0.000127
   47  O 10  S   -0.001298   0.009062   0.004992   0.009502  -0.001435
   48  O 10  X   -0.035316  -0.101889   0.467822  -0.152975  -0.394318
   49  O 10  Y   -0.067025  -0.048716  -0.050292  -0.002857   0.029763
   50  O 10  Z    0.056981  -0.010149   0.233306  -0.081857  -0.185526
   51  H 11  S    0.002696  -0.044951  -0.056631   0.011883  -0.037134
   52  H 12  S    0.072354  -0.130720  -0.061051   0.066930  -0.071161
   53  H 13  S    0.047135  -0.016159  -0.004505   0.002197   0.010140
   54  H 14  S    0.060960  -0.129057  -0.044009  -0.032517  -0.079864
   55  H 15  S   -0.003108  -0.076826   0.005805  -0.001324  -0.040102
   56  H 16  S    0.005898  -0.067678   0.002754  -0.019008  -0.091454
   57  H 17  S   -0.061084  -0.020073  -0.006480   0.002968   0.030496
   58  H 18  S    0.005108  -0.054438  -0.068546   0.057249  -0.086167
   59  H 19  S    0.023129   0.030701   0.008700  -0.006580  -0.017228
   60  H 20  S   -0.024819  -0.041522  -0.022138   0.013729  -0.016481

                     41         42         43         44         45
                    0.5165     0.5729     0.5898     0.6220     0.6227
                     A          A          A          A          A   
    1  C  1  S   -0.010609   0.024671   0.003100  -0.007584   0.036466
    2  C  1  S    0.037453  -0.159169  -0.018424   0.051162  -0.230139
    3  C  1  X    0.432928   0.033639  -0.002365  -0.039852  -0.015063
    4  C  1  Y    0.035646   0.250450   0.214872   0.058117   0.396997
    5  C  1  Z    0.169902   0.038954  -0.062480  -0.006141   0.006816
    6  C  2  S   -0.031066   0.020530   0.013933  -0.000753   0.042409
    7  C  2  S    0.194223  -0.127459  -0.087425   0.001745  -0.268114
    8  C  2  X   -0.298939   0.079398   0.071126  -0.042576   0.187560
    9  C  2  Y    0.095862   0.226691   0.177541  -0.002433   0.434402
   10  C  2  Z   -0.192261  -0.085447  -0.057339   0.029112  -0.141572
   11  C  3  S   -0.011464   0.013117   0.025916   0.027869   0.030977
   12  C  3  S    0.041893  -0.084633  -0.166076  -0.175194  -0.194774
   13  C  3  X    0.420352   0.104302   0.116745   0.042726   0.128320
   14  C  3  Y    0.050406   0.190053   0.067128  -0.135520   0.255313
   15  C  3  Z    0.221546  -0.173579  -0.111964   0.060644  -0.283688
   16  C  4  S    0.043395  -0.000286   0.047379   0.111528  -0.010246
   17  C  4  S   -0.229974  -0.020692  -0.290823  -0.655894   0.075544
   18  C  4  X    0.473675   0.087495   0.030248  -0.222107  -0.105050
   19  C  4  Y   -0.039968   0.308084  -0.045842  -0.523656  -0.170417
   20  C  4  Z    0.195524  -0.262687  -0.177331   0.018815   0.181126
   21  C  5  S    0.010263   0.043932   0.019024   0.002429  -0.050080
   22  C  5  S   -0.078883  -0.274502  -0.121443  -0.019987   0.314937
   23  C  5  X   -0.364648  -0.038224  -0.051528   0.071261   0.077849
   24  C  5  Y   -0.130415   0.305833   0.144003   0.047066  -0.284055
   25  C  5  Z   -0.094168  -0.141541  -0.125625   0.182102   0.159279
   26  C  6  S    0.040374   0.055074  -0.065057  -0.015307   0.006475
   27  C  6  S   -0.213894  -0.347948   0.377599   0.089026  -0.023813
   28  C  6  X    0.423364  -0.184550   0.163152  -0.109762  -0.014491
   29  C  6  Y    0.026609   0.269538   0.395064   0.161677  -0.339661
   30  C  6  Z    0.286314   0.117973  -0.201567   0.104271  -0.002941
   31  C  7  S   -0.015739   0.050686   0.021229   0.051268  -0.048313
   32  C  7  S    0.089694  -0.309297  -0.113765  -0.342972   0.288285
   33  C  7  X   -0.301045  -0.086718   0.168504  -0.073440  -0.007883
   34  C  7  Y   -0.054869   0.023945   0.399682   0.078368  -0.205796
   35  C  7  Z   -0.093178   0.285205  -0.413834   0.233832  -0.010404
   36  C  8  S    0.014585  -0.010834   0.023338   0.111051   0.000316
   37  C  8  S   -0.084975   0.041394  -0.120215  -0.683306   0.002610
   38  C  8  X    0.261353  -0.144652   0.267524   0.019835  -0.044522
   39  C  8  Y   -0.038064  -0.100672   0.237332  -0.365245  -0.057035
   40  C  8  Z    0.136955   0.209866  -0.463202  -0.181670   0.072835
   41  C  9  S   -0.017887   0.090805  -0.088995  -0.128738  -0.018689
   42  C  9  S    0.102236  -0.535323   0.525793   0.757166   0.107932
   43  C  9  X   -0.323187   0.013783   0.169297   0.064349  -0.078785
   44  C  9  Y   -0.053061   0.133708   0.060243  -0.462140  -0.129273
   45  C  9  Z   -0.111706   0.025449  -0.337631  -0.029984   0.122075
   46  O 10  S    0.002663  -0.018910   0.013330   0.007189   0.003879
   47  O 10  S   -0.015606   0.118461  -0.079604  -0.029322  -0.025297
   48  O 10  X    0.171021   0.018394  -0.067013  -0.012025   0.015714
   49  O 10  Y    0.022609  -0.150799   0.031646   0.085794   0.064470
   50  O 10  Z    0.074578  -0.087440   0.138667  -0.038831  -0.019009
   51  H 11  S    0.069073   0.309081   0.174698   0.020977   0.463849
   52  H 12  S   -0.001939  -0.125792  -0.220055  -0.077951  -0.241242
   53  H 13  S   -0.041938   0.347802   0.258790  -0.030365   0.652109
   54  H 14  S   -0.011276  -0.215429  -0.043173   0.224918  -0.278390
   55  H 15  S    0.066285   0.273354   0.251926   0.034939   0.439599
   56  H 16  S    0.032566   0.311177   0.348924   0.244260  -0.261793
   57  H 17  S   -0.021331   0.517991   0.274540  -0.057223  -0.517384
   58  H 18  S    0.053271   0.538530  -0.087307   0.171786  -0.235208
   59  H 19  S   -0.003864   0.483275  -0.424430   0.398820  -0.138448
   60  H 20  S    0.085799   0.166083  -0.390586   0.656337   0.100655

                     46         47         48         49         50
                    0.6647     0.6976     0.7143     0.7259     0.7411
                     A          A          A          A          A   
    1  C  1  S    0.034341  -0.116272  -0.026715   0.126739  -0.066470
    2  C  1  S   -0.215410   0.739394   0.161602  -0.811002   0.419482
    3  C  1  X    0.084609  -0.010933  -0.151605   0.125388   0.110163
    4  C  1  Y   -0.262272  -0.142346   0.209896  -0.499692  -0.025887
    5  C  1  Z    0.024955  -0.401128   0.193915   0.154529  -0.326106
    6  C  2  S   -0.010933   0.070766   0.062438  -0.014086  -0.006874
    7  C  2  S    0.064177  -0.431644  -0.387658   0.087349   0.069286
    8  C  2  X    0.013296   0.091138  -0.026556   0.147885   0.059033
    9  C  2  Y   -0.095282  -0.011259   0.055406  -0.156460  -0.044440
   10  C  2  Z   -0.110417  -0.080456   0.065913  -0.292489  -0.004448
   11  C  3  S    0.001824  -0.088439  -0.122595  -0.090375  -0.066949
   12  C  3  S   -0.012259   0.553794   0.786121   0.581949   0.421458
   13  C  3  X    0.106129  -0.039488  -0.345015   0.046920  -0.052022
   14  C  3  Y    0.011909   0.142546   0.186269   0.351895   0.276918
   15  C  3  Z   -0.205575  -0.239177   0.271263  -0.386075  -0.003319
   16  C  4  S    0.013314  -0.024202  -0.045361   0.025298   0.130874
   17  C  4  S   -0.091091   0.154161   0.300336  -0.142163  -0.817980
   18  C  4  X    0.190510   0.205766   0.058230  -0.058602  -0.164628
   19  C  4  Y   -0.005659  -0.108905  -0.012420  -0.070754   0.139666
   20  C  4  Z   -0.516313  -0.126291   0.201344   0.190378  -0.033557
   21  C  5  S    0.000270   0.056025   0.046781   0.001538  -0.146721
   22  C  5  S   -0.008994  -0.353606  -0.305991  -0.006427   0.935288
   23  C  5  X    0.194997   0.002241   0.018712  -0.059325  -0.143027
   24  C  5  Y   -0.055590  -0.105101   0.026583   0.028500   0.058195
   25  C  5  Z   -0.261771  -0.050776   0.037359   0.160346  -0.034055
   26  C  6  S    0.080147  -0.079932   0.031161  -0.051480   0.115973
   27  C  6  S   -0.479180   0.509668  -0.192340   0.304495  -0.728609
   28  C  6  X   -0.091332   0.305429  -0.182605  -0.044213  -0.118394
   29  C  6  Y   -0.466286  -0.159407   0.024758   0.189272   0.225688
   30  C  6  Z   -0.105611  -0.110563   0.319973   0.017257  -0.120689
   31  C  7  S   -0.120855   0.061856  -0.085964   0.052981  -0.026086
   32  C  7  S    0.744762  -0.409202   0.547807  -0.325636   0.161042
   33  C  7  X    0.084326  -0.130134  -0.007276   0.043460   0.064483
   34  C  7  Y   -0.278897   0.041232   0.081235   0.147463  -0.139761
   35  C  7  Z   -0.051617   0.029053   0.012285   0.075417  -0.115627
   36  C  8  S    0.091390  -0.003984   0.106829  -0.003635  -0.043154
   37  C  8  S   -0.551703   0.011752  -0.682759   0.019304   0.287573
   38  C  8  X   -0.018221   0.032384   0.043945   0.032778  -0.040743
   39  C  8  Y   -0.146107  -0.247883   0.058803   0.038650   0.095085
   40  C  8  Z   -0.065298   0.019962  -0.075013  -0.099305   0.035550
   41  C  9  S    0.005060   0.028067  -0.048583  -0.040352  -0.023979
   42  C  9  S   -0.042739  -0.182690   0.293100   0.242772   0.143203
   43  C  9  X    0.173200  -0.040323   0.093554  -0.057020  -0.121168
   44  C  9  Y    0.035567  -0.082430   0.198697  -0.071957  -0.176504
   45  C  9  Z   -0.308035  -0.126055  -0.323715  -0.004930   0.257891
   46  O 10  S   -0.017011  -0.020919   0.011314   0.007643   0.010135
   47  O 10  S    0.120887   0.143793  -0.074656  -0.050709  -0.069275
   48  O 10  X   -0.015235   0.060033  -0.044325   0.002029   0.011770
   49  O 10  Y   -0.182679  -0.148818   0.005634   0.066385   0.129388
   50  O 10  Z   -0.025223  -0.079391   0.149918   0.031692  -0.030392
   51  H 11  S   -0.112406  -0.651440   0.182750   0.042597  -0.388256
   52  H 12  S    0.322742  -0.425993  -0.128402   0.860149  -0.323833
   53  H 13  S   -0.083317   0.285453   0.225530  -0.044220  -0.021838
   54  H 14  S   -0.088698  -0.457842  -0.429773  -0.737279  -0.415940
   55  H 15  S    0.220452  -0.091976  -0.733800   0.089439  -0.202210
   56  H 16  S    0.581434   0.083270  -0.285526  -0.112438   0.403583
   57  H 17  S    0.041772   0.117237   0.148214  -0.032448  -0.392566
   58  H 18  S   -0.089076  -0.534384   0.327872  -0.001699   0.513236
   59  H 19  S   -0.468343   0.289013  -0.261255   0.173249  -0.188722
   60  H 20  S    0.420349   0.199368   0.256464  -0.082537  -0.185353

                     51         52         53         54         55
                    0.7566     0.7867     0.8227     0.8762     0.8828
                     A          A          A          A          A   
    1  C  1  S    0.067797   0.037195  -0.025593   0.010194  -0.023124
    2  C  1  S   -0.438013  -0.232693   0.159001  -0.071093   0.168451
    3  C  1  X   -0.098864   0.208251  -0.130729   0.015854  -0.157643
    4  C  1  Y    0.357272   0.257805  -0.192129  -0.156942  -0.095971
    5  C  1  Z    0.335188  -0.448169   0.345282   0.026331   0.125154
    6  C  2  S   -0.024348  -0.164971   0.110692   0.012980  -0.001672
    7  C  2  S    0.160337   1.092120  -0.740539  -0.088150   0.011581
    8  C  2  X   -0.022014   0.201246  -0.160165   0.035778  -0.139524
    9  C  2  Y    0.021440  -0.110857   0.069948   0.187936   0.187487
   10  C  2  Z    0.105673   0.177495  -0.115374  -0.079870   0.311038
   11  C  3  S   -0.056034   0.053357  -0.020939   0.006687   0.023377
   12  C  3  S    0.360548  -0.335197   0.131514  -0.052828  -0.168402
   13  C  3  X   -0.270964  -0.042549   0.045380   0.009934   0.033238
   14  C  3  Y    0.180065   0.508571  -0.424385  -0.079031   0.222732
   15  C  3  Z    0.458634   0.083905  -0.049171   0.078694   0.093527
   16  C  4  S    0.054548  -0.053855  -0.012665   0.033257   0.082745
   17  C  4  S   -0.344971   0.339188   0.082697  -0.236310  -0.574283
   18  C  4  X    0.110053  -0.011043   0.052641  -0.268631  -0.163708
   19  C  4  Y   -0.033376   0.317365   0.502812   0.294338   0.457119
   20  C  4  Z   -0.317951   0.108214  -0.048318   0.431851  -0.292537
   21  C  5  S   -0.033060  -0.046116  -0.118375  -0.058172  -0.003220
[...]
 18   H            X -0.04275470  0.01869888 -0.02948071 -0.02884080 -0.00785855
                   Y -0.10793308  0.01116624  0.02210938 -0.08865325 -0.01835141
                   Z -0.00506247  0.00095349  0.00198813  0.02825417  0.00211603
 19   H            X -0.00170967  0.00012636  0.00110435 -0.05780367 -0.01305960
                   Y -0.07125744  0.00380565  0.02211071 -0.14753624 -0.02832782
                   Z  0.00350750 -0.00005734  0.00683193  0.08804406  0.02024799
 20   H            X  0.00132083 -0.00053763  0.00130864 -0.04724757 -0.04076423
                   Y  0.01546692 -0.00023591 -0.00850488 -0.07252037  0.00786576
                   Z -0.00772977 -0.00123069  0.01432455  0.10922324  0.08822035

 TRANS. SAYVETZ    X -0.00000237 -0.00000081 -0.00000224 -0.00000097 -0.00000280
                   Y  0.00000160  0.00000193  0.00000098 -0.00000063  0.00000073
                   Z  0.00000109  0.00000141  0.00000009  0.00000089  0.00000213
               TOTAL  0.00000305  0.00000252  0.00000245  0.00000146  0.00000359

   ROT. SAYVETZ    X  0.00000555 -0.00020292 -0.00000351 -0.00003591  0.00001745
                   Y  0.00010494  0.00009440 -0.00011732  0.00002163 -0.00000628
                   Z -0.00004692  0.00002962  0.00003066 -0.00000038  0.00000969
               TOTAL  0.00011508  0.00022576  0.00012131  0.00004192  0.00002093

                           51          52          53          54          55
       FREQUENCY:      3630.08     3634.32     3686.09     3693.06     3695.66  
        SYMMETRY:         A           A           A           A           A   
    REDUCED MASS:      1.06267     1.06462     1.09101     1.09411     1.09590
    IR INTENSITY:      0.09890     0.07245     0.19351     0.04544     0.14154

  1   C            X  0.00972974  0.00471853 -0.00172850 -0.00014941  0.00351019
                   Y -0.00124430 -0.00028426 -0.00150703  0.00135819  0.00462892
                   Z -0.05913389 -0.03262269  0.00602503 -0.00147300 -0.00936113
  2   C            X -0.00041362 -0.00282763  0.00500088 -0.00275352 -0.02263073
                   Y  0.00885845  0.00059617  0.01576599 -0.00923604 -0.07211198
                   Z -0.00246597  0.00668327 -0.00615190  0.00325061  0.02797487
  3   C            X -0.01571460  0.03121350  0.00196651 -0.00041094 -0.00152118
                   Y  0.02428504 -0.04738506 -0.00616385  0.00192573  0.01080469
                   Z  0.01202567 -0.02208673 -0.00109037  0.00158619  0.00123419
  4   C            X  0.00045036 -0.00113885  0.01230424  0.01208437  0.00286932
                   Y  0.00063087  0.00044324  0.00533844  0.00271917  0.00026968
                   Z -0.00313104  0.00112498 -0.05591142 -0.05231649 -0.00986725
  5   C            X  0.00013954  0.00014323  0.00095566 -0.00241296  0.00023008
                   Y -0.00338041  0.00089820 -0.03600785  0.00885982 -0.00137237
                   Z  0.00154352 -0.00090041  0.01862221  0.00079186  0.00027316
  6   C            X -0.00150355  0.00091447 -0.01975791  0.03155714 -0.00982911
                   Y  0.00244706 -0.00074089  0.02922938 -0.04407388  0.01403725
                   Z  0.00155456  0.00057394  0.01651780 -0.02819307  0.00990558
  7   C            X  0.00065275  0.00005243  0.00321350 -0.00711640  0.00335560
                   Y  0.00006969  0.00008756 -0.00083304  0.00113323 -0.00025865
                   Z -0.00025059  0.00007910 -0.00698468  0.01516337 -0.00716128
  8   C            X -0.00004834  0.00001868 -0.00109279  0.00236071 -0.00102827
                   Y -0.00048051  0.00019126 -0.00283009  0.00703597 -0.00300079
                   Z  0.00018864  0.00004858  0.00147771 -0.00342992  0.00154589
  9   C            X  0.00025245 -0.00023204 -0.00043666 -0.00062772 -0.00005661
                   Y -0.00013961 -0.00007289 -0.00104977 -0.00148434 -0.00015494
                   Z  0.00021071 -0.00018541  0.00057625  0.00095813 -0.00000355
 10   O            X -0.00000638 -0.00002361  0.00001084  0.00003599  0.00001249
                   Y -0.00000357  0.00003642  0.00006637  0.00023077  0.00003671
                   Z -0.00001583  0.00000596 -0.00003964 -0.00005279  0.00001806
 11   H            X -0.05961525 -0.03237800  0.00609577 -0.00113620 -0.00509358
                   Y  0.50430508  0.27102291 -0.03424948  0.00443463  0.02587266
                   Z  0.32072350  0.17193117 -0.02163692  0.00306790  0.01680086
 12   H            X -0.02295953 -0.01176755  0.00429419 -0.00073401 -0.00198407
                   Y -0.49388244 -0.26886373  0.05088699 -0.01837802 -0.07698534
                   Z  0.32799891  0.17972196 -0.03247484  0.01186578  0.04899961
 13   H            X -0.03664311  0.00971489 -0.04930846  0.02892324  0.23062462
                   Y -0.12759762  0.03969045 -0.17528815  0.10179722  0.81018368
                   Z  0.05220987 -0.01313225  0.07071475 -0.04092114 -0.32564045
 14   H            X -0.00036452 -0.00147023  0.00223982 -0.00027531 -0.00011090
                   Y -0.29262864  0.56342660  0.06016521 -0.01330531 -0.08417778
                   Z  0.12758207 -0.24498013 -0.02540318  0.00583273  0.03926467
 15   H            X  0.18463982 -0.34938720 -0.02061038  0.00687113  0.01415623
                   Y  0.02688502 -0.05132411 -0.00282095  0.00101304  0.00125130
                   Z -0.24794237  0.47023867  0.03087471 -0.01067975 -0.02208041
 16   H            X -0.00598350  0.00172795 -0.13185176 -0.12282973 -0.02374372
                   Y -0.00310995  0.00086118 -0.05066349 -0.04542585 -0.00843284
                   Z  0.03866250 -0.01179406  0.63839856  0.58814110  0.10955487
 17   H            X -0.00132151  0.00038096 -0.02094432  0.00427988 -0.00104209
                   Y  0.03923226 -0.01233043  0.42428115 -0.07839589  0.01986009
                   Z -0.01929519  0.00617760 -0.21126580  0.03744874 -0.00979657
 18   H            X  0.02145263 -0.00773878  0.23405326 -0.36156155  0.11412067
                   Y -0.02736624  0.00971399 -0.32493872  0.50222620 -0.15970150
                   Z -0.01586720  0.00538686 -0.19609799  0.30525698 -0.09789622
 19   H            X -0.00322725  0.00041371 -0.03732165  0.08169375 -0.03803092
                   Y -0.00098173 -0.00016616 -0.00460423  0.00989144 -0.00460621
                   Z  0.00724240 -0.00096472  0.07978399 -0.17312862  0.08078136
 20   H            X  0.00098589 -0.00040708  0.00812150 -0.02314665  0.00977551
                   Y  0.00553736 -0.00171845  0.03305130 -0.08933258  0.03765771
                   Z -0.00217162  0.00033945 -0.01174044  0.03197036 -0.01340445

 TRANS. SAYVETZ    X  0.00000058 -0.00000009 -0.00000060  0.00000004 -0.00000001
                   Y -0.00000073  0.00000080 -0.00000181  0.00000103  0.00000003
                   Z -0.00000093  0.00000015 -0.00000060 -0.00000009  0.00000098
               TOTAL  0.00000131  0.00000082  0.00000200  0.00000103  0.00000099

   ROT. SAYVETZ    X -0.00001888 -0.00000025 -0.00000141  0.00000596 -0.00000603
                   Y  0.00000084 -0.00003143  0.00001382  0.00003433  0.00000232
                   Z  0.00003012 -0.00001350  0.00001572 -0.00002193  0.00000982
               TOTAL  0.00003555  0.00003420  0.00002098  0.00004117  0.00001175

                           56          57          58          59          60
       FREQUENCY:      3704.05     3712.80     3736.28     3777.40     3780.01  
        SYMMETRY:         A           A           A           A           A   
    REDUCED MASS:      1.09133     1.10022     1.10603     1.11642     1.11674
    IR INTENSITY:      0.55033     0.10233     0.06837     0.00320     0.01482

  1   C            X -0.00043844 -0.00041891  0.00004300  0.00388345  0.00154360
                   Y  0.00056539  0.00193356 -0.00042003 -0.08830782 -0.03199570
                   Z  0.00054235 -0.00031489  0.00004598  0.00070858 -0.00026549
  2   C            X  0.00168286 -0.00270527  0.00002231 -0.00115462 -0.00155314
                   Y  0.00482670 -0.00773857  0.00006463 -0.00156015 -0.00498297
                   Z -0.00194616  0.00287864 -0.00000541  0.00156826  0.00126722
  3   C            X  0.00013613  0.00018646 -0.00000229  0.01144096 -0.03219354
                   Y -0.00050153  0.00117953 -0.00028982  0.01883174 -0.05099480
                   Z  0.00028310 -0.00142835  0.00017233 -0.02327966  0.06464090
  4   C            X  0.00232002 -0.00810234  0.00074323  0.00008155  0.00009741
                   Y -0.00013579  0.00157145  0.00007919 -0.00009707  0.00018109
                   Z -0.00905567  0.02750075 -0.00238230 -0.00000454  0.00087399
  5   C            X -0.00158495  0.00568952 -0.00036078 -0.00002384  0.00011055
                   Y  0.01424502 -0.06422520  0.00438235 -0.00034485 -0.00068047
                   Z -0.00593422  0.03359532 -0.00228866  0.00029627  0.00036579
  6   C            X  0.00747153  0.01777457 -0.00192744  0.00059602  0.00061122
                   Y -0.01353124 -0.02431713  0.00485447 -0.00024249 -0.00043667
                   Z -0.00559110 -0.01973345  0.00176037 -0.00037049 -0.00032944
  7   C            X  0.02926556  0.00239418 -0.02076376  0.00007394  0.00009233
                   Y  0.00411658  0.00210716  0.00484475 -0.00004220 -0.00009837
                   Z -0.06128214 -0.00475945  0.04436716 -0.00071574 -0.00047419
  8   C            X -0.01117650 -0.00246206 -0.01489383 -0.00009833 -0.00010730
                   Y -0.03622775 -0.00995349 -0.07101932 -0.00006129  0.00013758
                   Z  0.01620696  0.00326419  0.01792586 -0.00001174  0.00004166
  9   C            X  0.00063170  0.00031144  0.00102883  0.00001716 -0.00015901
                   Y  0.00070466  0.00107678  0.00009104  0.00002056  0.00003312
                   Z -0.00123033 -0.00040649 -0.00216190  0.00009627 -0.00012102
 10   O            X -0.00006343 -0.00000202 -0.00012581  0.00001214 -0.00002702
                   Y -0.00017406 -0.00018945  0.00013324 -0.00000495  0.00001154
                   Z  0.00009292 -0.00002704  0.00029996 -0.00000966 -0.00000745
 11   H            X  0.00099205  0.00138078 -0.00012966 -0.06108183 -0.02208002
                   Y -0.00622852 -0.00871131  0.00215127  0.52259529  0.19028381
                   Z -0.00397563 -0.00545835  0.00126763  0.33720073  0.12233166
 12   H            X -0.00043482  0.00014686 -0.00033836  0.02113954  0.00791998
                   Y  0.00074822 -0.01248604  0.00336891  0.51820858  0.18534068
                   Z -0.00072921  0.00771324 -0.00217080 -0.35040186 -0.12534602
 13   H            X -0.01584648  0.02509941 -0.00001380  0.00944811  0.01746168
                   Y -0.05522021  0.08762982 -0.00049859  0.02355071  0.05799963
                   Z  0.02203030 -0.03515471  0.00014410 -0.01279777 -0.02073330
 14   H            X  0.00021776  0.00013042  0.00027596  0.00220405 -0.00519079
                   Y  0.00491019 -0.01228771  0.00316023 -0.20438769  0.55732301
                   Z -0.00247378  0.00626224 -0.00136856  0.08884113 -0.24146462
 15   H            X -0.00007595 -0.00532971  0.00037287 -0.13867629  0.38332227
                   Y -0.00013428 -0.00068784 -0.00000713 -0.01847040  0.05199279
                   Z -0.00002534  0.00787527 -0.00050542  0.18520382 -0.51162609
 16   H            X -0.02065948  0.06246550 -0.00467400 -0.00035047  0.00222791
                   Y -0.00791498  0.02156295 -0.00159508 -0.00002795  0.00082161
                   Z  0.09839023 -0.29316383  0.02243536  0.00214285 -0.01328538
 17   H            X  0.00932475 -0.03905026  0.00289127 -0.00013139 -0.00036644
                   Y -0.15771968  0.71247735 -0.04546188  0.00399425  0.00766258
                   Z  0.07811689 -0.35649907  0.02260124 -0.00211856 -0.00370741
 18   H            X -0.09430161 -0.19853909  0.02736671 -0.00675270 -0.00510163
                   Y  0.13369202  0.27697106 -0.03988514  0.00843086  0.00681925
                   Z  0.07884979  0.17029500 -0.02333582  0.00498752  0.00400602
 19   H            X -0.33173665 -0.02678557  0.21583208 -0.00298250 -0.00205818
                   Y -0.04564098 -0.00478730  0.02757360 -0.00005489 -0.00009708
                   Z  0.69488211  0.05542650 -0.45184673  0.00586051  0.00387288
 20   H            X  0.11647051  0.02968329  0.19037772  0.00057561  0.00004829
                   Y  0.44510935  0.11455090  0.73268305  0.00119265 -0.00056025
                   Z -0.15679015 -0.04024101 -0.25583146 -0.00023453  0.00022650

 TRANS. SAYVETZ    X  0.00000079  0.00000040 -0.00000018 -0.00000003 -0.00000008
                   Y -0.00000021 -0.00000095  0.00000021  0.00000008 -0.00000000
                   Z -0.00000018 -0.00000097  0.00000021  0.00000012 -0.00000002
               TOTAL  0.00000084  0.00000141  0.00000034  0.00000015  0.00000008

   ROT. SAYVETZ    X -0.00000648  0.00000112 -0.00000124 -0.00001523  0.00000831
                   Y  0.00002599 -0.00000023 -0.00000898 -0.00001424  0.00000901
                   Z -0.00000823 -0.00001459  0.00000388  0.00001695 -0.00000646
               TOTAL  0.00002803  0.00001464  0.00000986  0.00002687  0.00001385

 REFERENCE ON SAYVETZ CONDITIONS - A. SAYVETZ, J.CHEM.PHYS., 7, 383-389(1939).

 NOTE - THE MODES J,K ARE ORTHONORMALIZED ACCORDING TO
 SUM ON I   M(I) * (X(I,J)*X(I,K) + Y(I,J)*Y(I,K) + Z(I,J)*Z(I,K)) = DELTA(J,K)

  MODE FREQ(CM**-1)  SYMMETRY  RED. MASS  IR INTENS.
     1    1060.370    A        9.324710    0.064321
     2       0.209    A        6.463912    0.000166
     3       0.079    A        6.666870    0.000006
     4       0.015    A        6.703730    0.000001
     5       1.395    A        4.944556    0.013435
     6       5.104    A        4.918373    0.004057
     7       6.190    A        4.649723    0.010819
     8     104.131    A        4.137945    0.029775
     9     203.670    A        3.551421    0.016630
    10     265.246    A        4.167105    0.030695
    11     381.413    A        5.277082    0.035426
    12     437.612    A        2.307211    0.075452
    13     465.616    A        3.414290    0.109578
    14     493.043    A        3.992227    0.077127
    15     506.441    A        4.789686    0.105008
    16     552.686    A        1.961639    0.248758
    17     575.844    A        2.545780    0.264904
    18     610.979    A        4.901246    0.016014
    19     677.216    A        5.711277    0.076619
    20     840.260    A        3.287425    0.033010
    21     851.563    A        4.186025    0.032908
    22     926.856    A        1.667091    2.621568
    23     938.109    A        1.761294    0.121152
    24     964.342    A        1.772470    0.902799
    25    1004.117    A        1.456942    0.150409
    26    1040.445    A        1.586994    0.061885
    27    1092.367    A        1.590188    0.228081
    28    1119.736    A        2.732635    0.001836
    29    1166.736    A        2.141551    0.057051
    30    1209.132    A        1.282440    0.003080
    31    1214.219    A        1.508121    0.090269
    32    1240.835    A        1.141093    0.082538
    33    1270.216    A        1.287370    0.408579
    34    1301.612    A        1.134615    0.247650
    35    1318.494    A        1.219220    0.093696
    36    1341.283    A        1.231504    0.051301
    37    1365.534    A        1.156038    0.010765
    38    1386.068    A        1.275967    0.048818
    39    1418.710    A        1.831291    0.674033
    40    1471.056    A        1.323609    0.088160
    41    1488.626    A        1.670922    0.001692
    42    1599.390    A        1.598206    0.164881
    43    1637.162    A        1.712711    0.166597
    44    1668.012    A        1.524677    0.029336
    45    1718.729    A        2.486356    0.476519
    46    1758.374    A        1.912241    0.035435
    47    1813.504    A        1.256191    0.224278
    48    1856.578    A        2.349642    0.040066
    49    2009.744    A        7.078391    0.062085
    50    2080.654    A       10.639056    1.818326
    51    3630.077    A        1.062666    0.098904
    52    3634.318    A        1.064621    0.072451
    53    3686.086    A        1.091014    0.193513
    54    3693.057    A        1.094114    0.045443
    55    3695.660    A        1.095900    0.141542
    56    3704.053    A        1.091326    0.550329
    57    3712.803    A        1.100222    0.102333
    58    3736.283    A        1.106026    0.068373
    59    3777.402    A        1.116417    0.003200
    60    3780.008    A        1.116742    0.014822

     -------------------------------
     THERMOCHEMISTRY AT T=  298.15 K
     -------------------------------

 USING IDEAL GAS, RIGID ROTOR, HARMONIC NORMAL MODE APPROXIMATIONS.
 P=  1.01325E+05 PASCAL.
 ALL FREQUENCIES ARE SCALED BY   1.00000
 THE MOMENTS OF INERTIA ARE (IN AMU*BOHR**2)
            852.45920          1312.32580          1651.70451
 THE ROTATIONAL SYMMETRY NUMBER IS  1.0
 THE ROTATIONAL CONSTANTS ARE (IN GHZ)
      2.11516     1.37396     1.09165
   1 IMAGINARY FREQUENCY VIBRATION(S) IS(ARE) EXCLUDED
     FROM THE FOLLOWING THERMOCHEMICAL ANALYSIS.
      8 -     60 VIBRATIONAL MODES ARE USED IN THERMOCHEMISTRY.
 THE HARMONIC ZERO POINT ENERGY IS (SCALED BY   1.000)
        0.192360 HARTREE/MOLECULE    42218.053742 CM**-1/MOLECULE 
      120.707594 KCAL/MOL              505.040573 KJ/MOL

               Q               LN Q
 ELEC.     1.00000E+00       0.000000
 TRANS.    6.10192E+07      17.926699
 ROT.      4.86592E+05      13.095182
 VIB.      1.44464E+01       2.670445
 TOT.      4.28935E+14      33.692326

              E         H         G         CV        CP        S
           KJ/MOL    KJ/MOL    KJ/MOL   J/MOL-K   J/MOL-K   J/MOL-K
 ELEC.      0.000     0.000     0.000     0.000     0.000     0.000
 TRANS.     3.718     6.197   -44.439    12.472    20.786   169.836
 ROT.       3.718     3.718   -32.462    12.472    12.472   121.350
 VIB.     516.151   516.151   498.421    93.000    93.000    59.469
 TOTAL    523.588   526.067   421.519   117.943   126.257   350.655
 VIB. THERMAL CORRECTION E(T)-E(0) = H(T)-H(0) =     11110.718 J/MOL

              E         H         G         CV        CP        S
         KCAL/MOL  KCAL/MOL  KCAL/MOL CAL/MOL-K CAL/MOL-K CAL/MOL-K
 ELEC.      0.000     0.000     0.000     0.000     0.000     0.000
 TRANS.     0.889     1.481   -10.621     2.981     4.968    40.592
 ROT.       0.889     0.889    -7.759     2.981     2.981    29.003
 VIB.     123.363   123.363   119.125    22.227    22.227    14.213
 TOTAL    125.141   125.733   100.746    28.189    30.176    83.809
 VIB. THERMAL CORRECTION E(T)-E(0) = H(T)-H(0) =      2655.525 CAL/MOL
 ......END OF NORMAL COORDINATE ANALYSIS......
 STEP CPU TIME =     0.01 TOTAL CPU TIME =         69.2 (      1.2 MIN)
 TOTAL WALL CLOCK TIME=         69.4 SECONDS, CPU UTILIZATION IS    99.71%
               580000  WORDS OF DYNAMIC MEMORY USED
 EXECUTION OF GAMESS TERMINATED NORMALLY Sat Nov 13 21:08:52 2021
 DDI: 263640 bytes (0.3 MB / 0 MWords) used by master data server.

 ----------------------------------------
 CPU timing information for all processes
 ========================================
 0: 68.509 + 0.668 = 69.178
 ----------------------------------------
 ddikick.x: exited gracefully.
----- accounting info -----
Files used on the master node chemcompute-node-0.novalocal were:
-rw-r--r--. 1 chemcomp chemcomp     1515 Nov 13 21:07 /scratch/306173/342075.F05
-rw-rw-r--. 1 chemcomp chemcomp 18001600 Nov 13 21:08 /scratch/306173/342075.F08
-rw-rw-r--. 1 chemcomp chemcomp 70451200 Nov 13 21:08 /scratch/306173/342075.F10
-rw-rw-r--. 1 chemcomp chemcomp   878880 Nov 13 21:08 /scratch/306173/342075.F18
Sat Nov 13 21:08:56 UTC 2021
0.172u 0.129s 1:15.44 0.3%	0+0k 8+216io 0pf+0w
Finishing Up...
Looking for IR data...
Looking for Raman data...
vibramans not found
Looking for thermodynamics data...
Looking for UV-Vis data...
306173
